MODEL 1
REMARK VINA RESULT:      -7.1      0.000      0.000
REMARK  12 active torsions:
REMARK  status: ('A' for Active; 'I' for Inactive)
REMARK    1  A    between atoms: N_1  and  C_13 
REMARK    2  A    between atoms: N_2  and  C_14 
REMARK    3  A    between atoms: N_4  and  C_24 
REMARK    4  A    between atoms: C_5  and  C_6 
REMARK    5  A    between atoms: C_5  and  C_7 
REMARK    6  A    between atoms: C_6  and  C_8 
REMARK    7  A    between atoms: C_7  and  C_9 
REMARK    8  A    between atoms: C_8  and  C_10 
REMARK    9  A    between atoms: C_9  and  C_11 
REMARK   10  A    between atoms: C_10  and  C_12 
REMARK   11  A    between atoms: C_11  and  C_13 
REMARK   12  A    between atoms: C_12  and  C_14 
ROOT
HETATM    1  C   UNN     0      26.543  26.899  -5.708  0.00  0.00     0.000 C 
ENDROOT
BRANCH   1   2
HETATM    2  C   UNN     0      27.631  26.085  -6.431  0.00  0.00     0.000 C 
BRANCH   2   3
HETATM    3  C   UNN     0      27.041  25.136  -7.488  0.00  0.00     0.000 C 
BRANCH   3   4
HETATM    4  C   UNN     0      25.569  24.790  -7.200  0.00  0.00     0.002 C 
BRANCH   4   5
HETATM    5  C   UNN     0      24.960  23.883  -8.282  0.00  0.00     0.020 C 
BRANCH   5   6
HETATM    6  C   UNN     0      23.444  24.101  -8.436  0.00  0.00     0.129 C 
BRANCH   6   7
HETATM    7  N   UNN     0      22.630  22.896  -7.922  0.00  0.00    -0.350 N 
HETATM    8  C   UNN     0      22.207  22.821  -6.674  0.00  0.00     0.047 A 
HETATM    9  C   UNN     0      21.478  21.772  -6.218  0.00  0.00     0.017 A 
HETATM   10  C   UNN     0      22.492  23.791  -5.777  0.00  0.00     0.030 A 
HETATM   11  C   UNN     0      21.175  20.770  -7.062  0.00  0.00     0.040 A 
HETATM   12  C   UNN     0      21.061  21.731  -4.937  0.00  0.00     0.016 A 
HETATM   13  C   UNN     0      21.614  20.847  -8.323  0.00  0.00     0.054 A 
HETATM   14  C   UNN     0      22.333  21.905  -8.732  0.00  0.00     0.010 A 
HETATM   15  C   UNN     0      22.814  21.929 -10.169  0.00  0.00     0.068 C 
HETATM   16  C   UNN     0      21.355  22.713  -4.074  0.00  0.00     0.001 A 
HETATM   17  C   UNN     0      22.080  23.752  -4.501  0.00  0.00     0.002 A 
BRANCH  11  18
HETATM   18  N   UNN     0      20.500  19.742  -6.749  0.00  0.00    -0.398 N 
HETATM   19  H   UNN     0      20.935  18.975  -6.181  0.00  0.00     0.156 HD
HETATM   20  H   UNN     0      19.501  19.616  -7.035  0.00  0.00     0.156 HD
ENDBRANCH  11  18
ENDBRANCH   6   7
ENDBRANCH   5   6
ENDBRANCH   4   5
ENDBRANCH   3   4
ENDBRANCH   2   3
ENDBRANCH   1   2
BRANCH   1  21
HETATM   21  C   UNN     0      27.139  28.001  -4.813  0.00  0.00     0.000 C 
BRANCH  21  22
HETATM   22  C   UNN     0      28.255  28.784  -5.524  0.00  0.00     0.002 C 
BRANCH  22  23
HETATM   23  C   UNN     0      29.601  28.684  -4.784  0.00  0.00     0.020 C 
BRANCH  23  24
HETATM   24  C   UNN     0      30.700  28.063  -5.664  0.00  0.00     0.129 C 
BRANCH  24  25
HETATM   25  N   UNN     0      31.939  28.974  -5.774  0.00  0.00    -0.350 N 
HETATM   26  C   UNN     0      31.993  29.980  -6.627  0.00  0.00     0.047 A 
HETATM   27  C   UNN     0      33.074  30.795  -6.719  0.00  0.00     0.017 A 
HETATM   28  C   UNN     0      30.965  30.247  -7.463  0.00  0.00     0.030 A 
HETATM   29  C   UNN     0      34.132  30.571  -5.920  0.00  0.00     0.040 A 
HETATM   30  C   UNN     0      33.090  31.815  -7.600  0.00  0.00     0.016 A 
HETATM   31  N   UNN     0      35.195  31.265  -5.919  0.00  0.00    -0.398 N 
HETATM   32  C   UNN     0      34.076  29.542  -5.066  0.00  0.00     0.054 A 
HETATM   33  H   UNN     0      35.981  31.028  -5.266  0.00  0.00     0.156 HD
HETATM   34  H   UNN     0      35.331  32.087  -6.552  0.00  0.00     0.156 HD
HETATM   35  C   UNN     0      32.985  28.763  -5.007  0.00  0.00     0.010 A 
HETATM   36  C   UNN     0      32.988  27.605  -4.029  0.00  0.00     0.068 C 
HETATM   37  C   UNN     0      32.052  32.056  -8.412  0.00  0.00     0.001 A 
HETATM   38  C   UNN     0      30.981  31.260  -8.342  0.00  0.00     0.002 A 
ENDBRANCH  24  25
ENDBRANCH  23  24
ENDBRANCH  22  23
ENDBRANCH  21  22
ENDBRANCH   1  21
TORSDOF 12
ENDMDL
MODEL 2
REMARK VINA RESULT:      -6.8      6.539      9.739
REMARK  12 active torsions:
REMARK  status: ('A' for Active; 'I' for Inactive)
REMARK    1  A    between atoms: N_1  and  C_13 
REMARK    2  A    between atoms: N_2  and  C_14 
REMARK    3  A    between atoms: N_4  and  C_24 
REMARK    4  A    between atoms: C_5  and  C_6 
REMARK    5  A    between atoms: C_5  and  C_7 
REMARK    6  A    between atoms: C_6  and  C_8 
REMARK    7  A    between atoms: C_7  and  C_9 
REMARK    8  A    between atoms: C_8  and  C_10 
REMARK    9  A    between atoms: C_9  and  C_11 
REMARK   10  A    between atoms: C_10  and  C_12 
REMARK   11  A    between atoms: C_11  and  C_13 
REMARK   12  A    between atoms: C_12  and  C_14 
ROOT
HETATM    1  C   UNN     0      32.360  32.057  -2.613  0.00  0.00     0.000 C 
ENDROOT
BRANCH   1   2
HETATM    2  C   UNN     0      30.847  31.910  -2.858  0.00  0.00     0.000 C 
BRANCH   2   3
HETATM    3  C   UNN     0      30.300  30.573  -2.330  0.00  0.00     0.000 C 
BRANCH   3   4
HETATM    4  C   UNN     0      28.956  30.199  -2.979  0.00  0.00     0.002 C 
BRANCH   4   5
HETATM    5  C   UNN     0      28.644  31.061  -4.214  0.00  0.00     0.020 C 
BRANCH   5   6
HETATM    6  C   UNN     0      28.692  30.245  -5.518  0.00  0.00     0.129 C 
BRANCH   6   7
HETATM    7  N   UNN     0      30.132  29.842  -5.897  0.00  0.00    -0.350 N 
HETATM    8  C   UNN     0      31.008  30.722  -6.343  0.00  0.00     0.047 A 
HETATM    9  C   UNN     0      32.280  30.377  -6.665  0.00  0.00     0.017 A 
HETATM   10  C   UNN     0      30.676  32.021  -6.512  0.00  0.00     0.030 A 
HETATM   11  C   UNN     0      32.665  29.095  -6.530  0.00  0.00     0.040 A 
HETATM   12  C   UNN     0      33.149  31.305  -7.115  0.00  0.00     0.016 A 
HETATM   13  C   UNN     0      31.769  28.207  -6.086  0.00  0.00     0.054 A 
HETATM   14  C   UNN     0      30.521  28.592  -5.779  0.00  0.00     0.010 A 
HETATM   15  C   UNN     0      29.547  27.536  -5.295  0.00  0.00     0.068 C 
HETATM   16  C   UNN     0      32.789  32.587  -7.264  0.00  0.00     0.001 A 
HETATM   17  C   UNN     0      31.537  32.945  -6.961  0.00  0.00     0.002 A 
BRANCH  11  18
HETATM   18  N   UNN     0      33.826  28.659  -6.798  0.00  0.00    -0.398 N 
HETATM   19  H   UNN     0      33.946  27.781  -7.358  0.00  0.00     0.156 HD
HETATM   20  H   UNN     0      34.698  29.145  -6.481  0.00  0.00     0.156 HD
ENDBRANCH  11  18
ENDBRANCH   6   7
ENDBRANCH   5   6
ENDBRANCH   4   5
ENDBRANCH   3   4
ENDBRANCH   2   3
ENDBRANCH   1   2
BRANCH   1  21
HETATM   21  C   UNN     0      33.165  30.899  -3.230  0.00  0.00     0.000 C 
BRANCH  21  22
HETATM   22  C   UNN     0      34.588  31.328  -3.623  0.00  0.00     0.002 C 
BRANCH  22  23
HETATM   23  C   UNN     0      35.651  30.314  -3.164  0.00  0.00     0.020 C 
BRANCH  23  24
HETATM   24  C   UNN     0      36.201  29.483  -4.336  0.00  0.00     0.129 C 
BRANCH  24  25
HETATM   25  N   UNN     0      36.735  28.111  -3.875  0.00  0.00    -0.350 N 
HETATM   26  C   UNN     0      35.926  27.112  -3.573  0.00  0.00     0.047 A 
HETATM   27  C   UNN     0      36.388  25.899  -3.180  0.00  0.00     0.017 A 
HETATM   28  C   UNN     0      34.583  27.254  -3.636  0.00  0.00     0.030 A 
HETATM   29  C   UNN     0      37.715  25.703  -3.087  0.00  0.00     0.040 A 
HETATM   30  C   UNN     0      35.530  24.903  -2.884  0.00  0.00     0.016 A 
HETATM   31  N   UNN     0      38.260  24.614  -2.731  0.00  0.00    -0.398 N 
HETATM   32  C   UNN     0      38.529  26.723  -3.383  0.00  0.00     0.054 A 
HETATM   33  H   UNN     0      39.305  24.536  -2.680  0.00  0.00     0.156 HD
HETATM   34  H   UNN     0      37.705  23.763  -2.479  0.00  0.00     0.156 HD
HETATM   35  C   UNN     0      38.029  27.906  -3.770  0.00  0.00     0.010 A 
HETATM   36  C   UNN     0      39.003  29.027  -4.077  0.00  0.00     0.068 C 
HETATM   37  C   UNN     0      34.204  25.073  -2.962  0.00  0.00     0.001 A 
HETATM   38  C   UNN     0      33.729  26.264  -3.340  0.00  0.00     0.002 A 
ENDBRANCH  24  25
ENDBRANCH  23  24
ENDBRANCH  22  23
ENDBRANCH  21  22
ENDBRANCH   1  21
TORSDOF 12
ENDMDL
MODEL 3
REMARK VINA RESULT:      -6.8      4.142      7.209
REMARK  12 active torsions:
REMARK  status: ('A' for Active; 'I' for Inactive)
REMARK    1  A    between atoms: N_1  and  C_13 
REMARK    2  A    between atoms: N_2  and  C_14 
REMARK    3  A    between atoms: N_4  and  C_24 
REMARK    4  A    between atoms: C_5  and  C_6 
REMARK    5  A    between atoms: C_5  and  C_7 
REMARK    6  A    between atoms: C_6  and  C_8 
REMARK    7  A    between atoms: C_7  and  C_9 
REMARK    8  A    between atoms: C_8  and  C_10 
REMARK    9  A    between atoms: C_9  and  C_11 
REMARK   10  A    between atoms: C_10  and  C_12 
REMARK   11  A    between atoms: C_11  and  C_13 
REMARK   12  A    between atoms: C_12  and  C_14 
ROOT
HETATM    1  C   UNN     0      32.859  31.836  -5.911  0.00  0.00     0.000 C 
ENDROOT
BRANCH   1   2
HETATM    2  C   UNN     0      31.378  31.531  -6.193  0.00  0.00     0.000 C 
BRANCH   2   3
HETATM    3  C   UNN     0      30.444  32.619  -5.636  0.00  0.00     0.000 C 
BRANCH   3   4
HETATM    4  C   UNN     0      29.503  32.074  -4.547  0.00  0.00     0.002 C 
BRANCH   4   5
HETATM    5  C   UNN     0      28.534  31.012  -5.090  0.00  0.00     0.020 C 
BRANCH   5   6
HETATM    6  C   UNN     0      28.515  29.744  -4.217  0.00  0.00     0.129 C 
BRANCH   6   7
HETATM    7  N   UNN     0      27.760  28.583  -4.896  0.00  0.00    -0.350 N 
HETATM    8  C   UNN     0      26.442  28.512  -4.896  0.00  0.00     0.047 A 
HETATM    9  C   UNN     0      25.772  27.502  -5.503  0.00  0.00     0.017 A 
HETATM   10  C   UNN     0      25.689  29.447  -4.275  0.00  0.00     0.030 A 
HETATM   11  C   UNN     0      26.468  26.535  -6.127  0.00  0.00     0.040 A 
HETATM   12  C   UNN     0      24.424  27.465  -5.484  0.00  0.00     0.016 A 
HETATM   13  C   UNN     0      27.804  26.608  -6.116  0.00  0.00     0.054 A 
HETATM   14  C   UNN     0      28.427  27.627  -5.503  0.00  0.00     0.010 A 
HETATM   15  C   UNN     0      29.943  27.645  -5.512  0.00  0.00     0.068 C 
HETATM   16  C   UNN     0      23.706  28.411  -4.865  0.00  0.00     0.001 A 
HETATM   17  C   UNN     0      24.349  29.411  -4.252  0.00  0.00     0.002 A 
BRANCH  11  18
HETATM   18  N   UNN     0      25.949  25.545  -6.728  0.00  0.00    -0.398 N 
HETATM   19  H   UNN     0      25.526  24.756  -6.182  0.00  0.00     0.156 HD
HETATM   20  H   UNN     0      25.919  25.473  -7.772  0.00  0.00     0.156 HD
ENDBRANCH  11  18
ENDBRANCH   6   7
ENDBRANCH   5   6
ENDBRANCH   4   5
ENDBRANCH   3   4
ENDBRANCH   2   3
ENDBRANCH   1   2
BRANCH   1  21
HETATM   21  C   UNN     0      33.797  30.775  -6.515  0.00  0.00     0.000 C 
BRANCH  21  22
HETATM   22  C   UNN     0      33.041  29.504  -6.935  0.00  0.00     0.002 C 
BRANCH  22  23
HETATM   23  C   UNN     0      33.231  28.353  -5.930  0.00  0.00     0.020 C 
BRANCH  23  24
HETATM   24  C   UNN     0      34.278  28.691  -4.855  0.00  0.00     0.129 C 
BRANCH  24  25
HETATM   25  N   UNN     0      33.950  28.031  -3.499  0.00  0.00    -0.350 N 
HETATM   26  C   UNN     0      34.392  26.828  -3.184  0.00  0.00     0.047 A 
HETATM   27  C   UNN     0      34.120  26.248  -1.988  0.00  0.00     0.017 A 
HETATM   28  C   UNN     0      35.140  26.106  -4.047  0.00  0.00     0.030 A 
HETATM   29  C   UNN     0      33.371  26.914  -1.092  0.00  0.00     0.040 A 
HETATM   30  C   UNN     0      34.592  25.019  -1.700  0.00  0.00     0.016 A 
HETATM   31  N   UNN     0      33.053  26.472   0.054  0.00  0.00    -0.398 N 
HETATM   32  C   UNN     0      32.917  28.129  -1.423  0.00  0.00     0.054 A 
HETATM   33  H   UNN     0      32.462  27.050   0.700  0.00  0.00     0.156 HD
HETATM   34  H   UNN     0      33.360  25.533   0.400  0.00  0.00     0.156 HD
HETATM   35  C   UNN     0      33.212  28.666  -2.617  0.00  0.00     0.010 A 
HETATM   36  C   UNN     0      32.655  30.039  -2.938  0.00  0.00     0.068 C 
HETATM   37  C   UNN     0      35.335  24.330  -2.577  0.00  0.00     0.001 A 
HETATM   38  C   UNN     0      35.608  24.882  -3.763  0.00  0.00     0.002 A 
ENDBRANCH  24  25
ENDBRANCH  23  24
ENDBRANCH  22  23
ENDBRANCH  21  22
ENDBRANCH   1  21
TORSDOF 12
ENDMDL
MODEL 4
REMARK VINA RESULT:      -6.7      6.470     11.129
REMARK  12 active torsions:
REMARK  status: ('A' for Active; 'I' for Inactive)
REMARK    1  A    between atoms: N_1  and  C_13 
REMARK    2  A    between atoms: N_2  and  C_14 
REMARK    3  A    between atoms: N_4  and  C_24 
REMARK    4  A    between atoms: C_5  and  C_6 
REMARK    5  A    between atoms: C_5  and  C_7 
REMARK    6  A    between atoms: C_6  and  C_8 
REMARK    7  A    between atoms: C_7  and  C_9 
REMARK    8  A    between atoms: C_8  and  C_10 
REMARK    9  A    between atoms: C_9  and  C_11 
REMARK   10  A    between atoms: C_10  and  C_12 
REMARK   11  A    between atoms: C_11  and  C_13 
REMARK   12  A    between atoms: C_12  and  C_14 
ROOT
HETATM    1  C   UNN     0      25.018  25.865 -11.659  0.00  0.00     0.000 C 
ENDROOT
BRANCH   1   2
HETATM    2  C   UNN     0      25.855  24.584 -11.491  0.00  0.00     0.000 C 
BRANCH   2   3
HETATM    3  C   UNN     0      25.415  23.758 -10.270  0.00  0.00     0.000 C 
BRANCH   3   4
HETATM    4  C   UNN     0      26.200  24.133  -9.001  0.00  0.00     0.002 C 
BRANCH   4   5
HETATM    5  C   UNN     0      25.383  23.900  -7.720  0.00  0.00     0.020 C 
BRANCH   5   6
HETATM    6  C   UNN     0      23.912  24.322  -7.885  0.00  0.00     0.129 C 
BRANCH   6   7
HETATM    7  N   UNN     0      22.973  23.532  -6.949  0.00  0.00    -0.350 N 
HETATM    8  C   UNN     0      22.404  22.402  -7.324  0.00  0.00     0.047 A 
HETATM    9  C   UNN     0      21.589  21.695  -6.502  0.00  0.00     0.017 A 
HETATM   10  C   UNN     0      22.599  21.894  -8.561  0.00  0.00     0.030 A 
HETATM   11  C   UNN     0      21.348  22.158  -5.263  0.00  0.00     0.040 A 
HETATM   12  C   UNN     0      21.027  20.543  -6.919  0.00  0.00     0.016 A 
HETATM   13  C   UNN     0      21.920  23.309  -4.892  0.00  0.00     0.054 A 
HETATM   14  C   UNN     0      22.721  23.976  -5.739  0.00  0.00     0.010 A 
HETATM   15  C   UNN     0      23.329  25.282  -5.266  0.00  0.00     0.068 C 
HETATM   16  C   UNN     0      21.246  20.062  -8.150  0.00  0.00     0.001 A 
HETATM   17  C   UNN     0      22.040  20.749  -8.979  0.00  0.00     0.002 A 
BRANCH  11  18
HETATM   18  N   UNN     0      20.605  21.583  -4.409  0.00  0.00    -0.398 N 
HETATM   19  H   UNN     0      19.585  21.816  -4.351  0.00  0.00     0.156 HD
HETATM   20  H   UNN     0      20.969  20.864  -3.740  0.00  0.00     0.156 HD
ENDBRANCH  11  18
ENDBRANCH   6   7
ENDBRANCH   5   6
ENDBRANCH   4   5
ENDBRANCH   3   4
ENDBRANCH   2   3
ENDBRANCH   1   2
BRANCH   1  21
HETATM   21  C   UNN     0      23.531  25.635 -11.334  0.00  0.00     0.000 C 
BRANCH  21  22
HETATM   22  C   UNN     0      22.614  26.036 -12.500  0.00  0.00     0.002 C 
BRANCH  22  23
HETATM   23  C   UNN     0      21.735  24.867 -12.980  0.00  0.00     0.020 C 
BRANCH  23  24
HETATM   24  C   UNN     0      21.886  23.625 -12.086  0.00  0.00     0.129 C 
BRANCH  24  25
HETATM   25  N   UNN     0      20.528  22.959 -11.784  0.00  0.00    -0.350 N 
HETATM   26  C   UNN     0      19.994  22.062 -12.592  0.00  0.00     0.047 A 
HETATM   27  C   UNN     0      18.808  21.462 -12.326  0.00  0.00     0.017 A 
HETATM   28  C   UNN     0      20.609  21.698 -13.740  0.00  0.00     0.030 A 
HETATM   29  C   UNN     0      18.144  21.793 -11.204  0.00  0.00     0.040 A 
HETATM   30  C   UNN     0      18.296  20.548 -13.174  0.00  0.00     0.016 A 
HETATM   31  N   UNN     0      17.028  21.299 -10.853  0.00  0.00    -0.398 N 
HETATM   32  C   UNN     0      18.685  22.711 -10.395  0.00  0.00     0.054 A 
HETATM   33  H   UNN     0      16.569  21.609  -9.962  0.00  0.00     0.156 HD
HETATM   34  H   UNN     0      16.529  20.576 -11.422  0.00  0.00     0.156 HD
HETATM   35  C   UNN     0      19.863  23.278 -10.697  0.00  0.00     0.010 A 
HETATM   36  C   UNN     0      20.416  24.322  -9.746  0.00  0.00     0.068 C 
HETATM   37  C   UNN     0      18.933  20.205 -14.302  0.00  0.00     0.001 A 
HETATM   38  C   UNN     0      20.100  20.790 -14.586  0.00  0.00     0.002 A 
ENDBRANCH  24  25
ENDBRANCH  23  24
ENDBRANCH  22  23
ENDBRANCH  21  22
ENDBRANCH   1  21
TORSDOF 12
ENDMDL
MODEL 5
REMARK VINA RESULT:      -6.7      2.422     11.712
REMARK  12 active torsions:
REMARK  status: ('A' for Active; 'I' for Inactive)
REMARK    1  A    between atoms: N_1  and  C_13 
REMARK    2  A    between atoms: N_2  and  C_14 
REMARK    3  A    between atoms: N_4  and  C_24 
REMARK    4  A    between atoms: C_5  and  C_6 
REMARK    5  A    between atoms: C_5  and  C_7 
REMARK    6  A    between atoms: C_6  and  C_8 
REMARK    7  A    between atoms: C_7  and  C_9 
REMARK    8  A    between atoms: C_8  and  C_10 
REMARK    9  A    between atoms: C_9  and  C_11 
REMARK   10  A    between atoms: C_10  and  C_12 
REMARK   11  A    between atoms: C_11  and  C_13 
REMARK   12  A    between atoms: C_12  and  C_14 
ROOT
HETATM    1  C   UNN     0      26.057  27.338  -5.804  0.00  0.00     0.000 C 
ENDROOT
BRANCH   1   2
HETATM    2  C   UNN     0      27.359  27.654  -5.047  0.00  0.00     0.000 C 
BRANCH   2   3
HETATM    3  C   UNN     0      28.584  26.979  -5.688  0.00  0.00     0.000 C 
BRANCH   3   4
HETATM    4  C   UNN     0      29.898  27.691  -5.322  0.00  0.00     0.002 C 
BRANCH   4   5
HETATM    5  C   UNN     0      30.071  29.020  -6.075  0.00  0.00     0.020 C 
BRANCH   5   6
HETATM    6  C   UNN     0      30.592  30.142  -5.159  0.00  0.00     0.129 C 
BRANCH   6   7
HETATM    7  N   UNN     0      32.026  30.573  -5.527  0.00  0.00    -0.350 N 
HETATM    8  C   UNN     0      32.270  31.428  -6.502  0.00  0.00     0.047 A 
HETATM    9  C   UNN     0      33.527  31.823  -6.822  0.00  0.00     0.017 A 
HETATM   10  C   UNN     0      31.268  31.950  -7.244  0.00  0.00     0.030 A 
HETATM   11  C   UNN     0      34.566  31.327  -6.126  0.00  0.00     0.040 A 
HETATM   12  C   UNN     0      33.737  32.701  -7.823  0.00  0.00     0.016 A 
HETATM   13  C   UNN     0      34.313  30.453  -5.145  0.00  0.00     0.054 A 
HETATM   14  C   UNN     0      33.052  30.091  -4.862  0.00  0.00     0.010 A 
HETATM   15  C   UNN     0      32.831  29.087  -3.748  0.00  0.00     0.068 C 
HETATM   16  C   UNN     0      32.721  33.205  -8.536  0.00  0.00     0.001 A 
HETATM   17  C   UNN     0      31.474  32.822  -8.242  0.00  0.00     0.002 A 
BRANCH  11  18
HETATM   18  N   UNN     0      35.782  31.624  -6.335  0.00  0.00    -0.398 N 
HETATM   19  H   UNN     0      36.398  31.925  -5.541  0.00  0.00     0.156 HD
HETATM   20  H   UNN     0      36.216  31.583  -7.287  0.00  0.00     0.156 HD
ENDBRANCH  11  18
ENDBRANCH   6   7
ENDBRANCH   5   6
ENDBRANCH   4   5
ENDBRANCH   3   4
ENDBRANCH   2   3
ENDBRANCH   1   2
BRANCH   1  21
HETATM   21  C   UNN     0      24.849  27.214  -4.858  0.00  0.00     0.000 C 
BRANCH  21  22
HETATM   22  C   UNN     0      23.887  26.095  -5.289  0.00  0.00     0.002 C 
BRANCH  22  23
HETATM   23  C   UNN     0      23.880  25.886  -6.814  0.00  0.00     0.020 C 
BRANCH  23  24
HETATM   24  C   UNN     0      24.191  24.430  -7.199  0.00  0.00     0.129 C 
BRANCH  24  25
HETATM   25  N   UNN     0      24.614  24.299  -8.677  0.00  0.00    -0.350 N 
HETATM   26  C   UNN     0      23.729  24.160  -9.647  0.00  0.00     0.047 A 
HETATM   27  C   UNN     0      24.093  24.059 -10.950  0.00  0.00     0.017 A 
HETATM   28  C   UNN     0      22.404  24.105  -9.386  0.00  0.00     0.030 A 
HETATM   29  C   UNN     0      25.399  24.095 -11.270  0.00  0.00     0.040 A 
HETATM   30  C   UNN     0      23.160  23.921 -11.913  0.00  0.00     0.016 A 
HETATM   31  N   UNN     0      25.856  24.009 -12.451  0.00  0.00    -0.398 N 
HETATM   32  C   UNN     0      26.291  24.225 -10.280  0.00  0.00     0.054 A 
HETATM   33  H   UNN     0      26.890  24.044 -12.623  0.00  0.00     0.156 HD
HETATM   34  H   UNN     0      25.235  23.904 -13.287  0.00  0.00     0.156 HD
HETATM   35  C   UNN     0      25.886  24.323  -9.005  0.00  0.00     0.010 A 
HETATM   36  C   UNN     0      26.946  24.454  -7.929  0.00  0.00     0.068 C 
HETATM   37  C   UNN     0      21.854  23.875 -11.622  0.00  0.00     0.001 A 
HETATM   38  C   UNN     0      21.475  23.965 -10.343  0.00  0.00     0.002 A 
ENDBRANCH  24  25
ENDBRANCH  23  24
ENDBRANCH  22  23
ENDBRANCH  21  22
ENDBRANCH   1  21
TORSDOF 12
ENDMDL
MODEL 6
REMARK VINA RESULT:      -6.6      1.892      3.778
REMARK  12 active torsions:
REMARK  status: ('A' for Active; 'I' for Inactive)
REMARK    1  A    between atoms: N_1  and  C_13 
REMARK    2  A    between atoms: N_2  and  C_14 
REMARK    3  A    between atoms: N_4  and  C_24 
REMARK    4  A    between atoms: C_5  and  C_6 
REMARK    5  A    between atoms: C_5  and  C_7 
REMARK    6  A    between atoms: C_6  and  C_8 
REMARK    7  A    between atoms: C_7  and  C_9 
REMARK    8  A    between atoms: C_8  and  C_10 
REMARK    9  A    between atoms: C_9  and  C_11 
REMARK   10  A    between atoms: C_10  and  C_12 
REMARK   11  A    between atoms: C_11  and  C_13 
REMARK   12  A    between atoms: C_12  and  C_14 
ROOT
HETATM    1  C   UNN     0      26.986  26.974  -5.927  0.00  0.00     0.000 C 
ENDROOT
BRANCH   1   2
HETATM    2  C   UNN     0      27.864  25.837  -6.480  0.00  0.00     0.000 C 
BRANCH   2   3
HETATM    3  C   UNN     0      27.136  25.009  -7.553  0.00  0.00     0.000 C 
BRANCH   3   4
HETATM    4  C   UNN     0      25.673  24.723  -7.171  0.00  0.00     0.002 C 
BRANCH   4   5
HETATM    5  C   UNN     0      24.743  24.705  -8.395  0.00  0.00     0.020 C 
BRANCH   5   6
HETATM    6  C   UNN     0      23.295  25.076  -8.029  0.00  0.00     0.129 C 
BRANCH   6   7
HETATM    7  N   UNN     0      22.708  24.133  -6.958  0.00  0.00    -0.350 N 
HETATM    8  C   UNN     0      22.323  22.905  -7.246  0.00  0.00     0.047 A 
HETATM    9  C   UNN     0      21.820  22.065  -6.307  0.00  0.00     0.017 A 
HETATM   10  C   UNN     0      22.403  22.421  -8.505  0.00  0.00     0.030 A 
HETATM   11  C   UNN     0      21.704  22.496  -5.038  0.00  0.00     0.040 A 
HETATM   12  C   UNN     0      21.439  20.815  -6.639  0.00  0.00     0.016 A 
HETATM   13  C   UNN     0      22.087  23.746  -4.755  0.00  0.00     0.054 A 
HETATM   14  C   UNN     0      22.581  24.543  -5.716  0.00  0.00     0.010 A 
HETATM   15  C   UNN     0      22.985  25.953  -5.335  0.00  0.00     0.068 C 
HETATM   16  C   UNN     0      21.538  20.363  -7.896  0.00  0.00     0.001 A 
HETATM   17  C   UNN     0      22.023  21.178  -8.838  0.00  0.00     0.002 A 
BRANCH  11  18
HETATM   18  N   UNN     0      21.249  21.800  -4.079  0.00  0.00    -0.398 N 
HETATM   19  H   UNN     0      21.531  22.011  -3.091  0.00  0.00     0.156 HD
HETATM   20  H   UNN     0      20.586  21.003  -4.226  0.00  0.00     0.156 HD
ENDBRANCH  11  18
ENDBRANCH   6   7
ENDBRANCH   5   6
ENDBRANCH   4   5
ENDBRANCH   3   4
ENDBRANCH   2   3
ENDBRANCH   1   2
BRANCH   1  21
HETATM   21  C   UNN     0      27.727  27.824  -4.879  0.00  0.00     0.000 C 
BRANCH  21  22
HETATM   22  C   UNN     0      29.253  27.763  -5.056  0.00  0.00     0.002 C 
BRANCH  22  23
HETATM   23  C   UNN     0      29.777  28.870  -5.988  0.00  0.00     0.020 C 
BRANCH  23  24
HETATM   24  C   UNN     0      30.775  29.800  -5.276  0.00  0.00     0.129 C 
BRANCH  24  25
HETATM   25  N   UNN     0      31.756  29.019  -4.377  0.00  0.00    -0.350 N 
HETATM   26  C   UNN     0      31.652  29.025  -3.061  0.00  0.00     0.047 A 
HETATM   27  C   UNN     0      32.502  28.329  -2.266  0.00  0.00     0.017 A 
HETATM   28  C   UNN     0      30.688  29.735  -2.436  0.00  0.00     0.030 A 
HETATM   29  C   UNN     0      33.490  27.612  -2.831  0.00  0.00     0.040 A 
HETATM   30  C   UNN     0      32.362  28.356  -0.925  0.00  0.00     0.016 A 
HETATM   31  N   UNN     0      34.342  26.925  -2.188  0.00  0.00    -0.398 N 
HETATM   32  C   UNN     0      33.596  27.620  -4.165  0.00  0.00     0.054 A 
HETATM   33  H   UNN     0      35.087  26.392  -2.700  0.00  0.00     0.156 HD
HETATM   34  H   UNN     0      34.339  26.860  -1.143  0.00  0.00     0.156 HD
HETATM   35  C   UNN     0      32.732  28.322  -4.914  0.00  0.00     0.010 A 
HETATM   36  C   UNN     0      32.914  28.302  -6.419  0.00  0.00     0.068 C 
HETATM   37  C   UNN     0      31.392  29.067  -0.335  0.00  0.00     0.001 A 
HETATM   38  C   UNN     0      30.549  29.765  -1.102  0.00  0.00     0.002 A 
ENDBRANCH  24  25
ENDBRANCH  23  24
ENDBRANCH  22  23
ENDBRANCH  21  22
ENDBRANCH   1  21
TORSDOF 12
ENDMDL
MODEL 7
REMARK VINA RESULT:      -6.6      2.808     11.368
REMARK  12 active torsions:
REMARK  status: ('A' for Active; 'I' for Inactive)
REMARK    1  A    between atoms: N_1  and  C_13 
REMARK    2  A    between atoms: N_2  and  C_14 
REMARK    3  A    between atoms: N_4  and  C_24 
REMARK    4  A    between atoms: C_5  and  C_6 
REMARK    5  A    between atoms: C_5  and  C_7 
REMARK    6  A    between atoms: C_6  and  C_8 
REMARK    7  A    between atoms: C_7  and  C_9 
REMARK    8  A    between atoms: C_8  and  C_10 
REMARK    9  A    between atoms: C_9  and  C_11 
REMARK   10  A    between atoms: C_10  and  C_12 
REMARK   11  A    between atoms: C_11  and  C_13 
REMARK   12  A    between atoms: C_12  and  C_14 
ROOT
HETATM    1  C   UNN     0      26.251  27.302  -5.755  0.00  0.00     0.000 C 
ENDROOT
BRANCH   1   2
HETATM    2  C   UNN     0      27.528  27.643  -4.967  0.00  0.00     0.000 C 
BRANCH   2   3
HETATM    3  C   UNN     0      28.804  27.363  -5.779  0.00  0.00     0.000 C 
BRANCH   3   4
HETATM    4  C   UNN     0      30.081  27.675  -4.979  0.00  0.00     0.002 C 
BRANCH   4   5
HETATM    5  C   UNN     0      30.529  29.137  -5.140  0.00  0.00     0.020 C 
BRANCH   5   6
HETATM    6  C   UNN     0      29.871  29.814  -6.356  0.00  0.00     0.129 C 
BRANCH   6   7
HETATM    7  N   UNN     0      29.996  31.350  -6.303  0.00  0.00    -0.350 N 
HETATM    8  C   UNN     0      30.906  32.001  -7.002  0.00  0.00     0.047 A 
HETATM    9  C   UNN     0      31.013  33.352  -6.972  0.00  0.00     0.017 A 
HETATM   10  C   UNN     0      31.792  31.345  -7.784  0.00  0.00     0.030 A 
HETATM   11  C   UNN     0      30.166  34.059  -6.201  0.00  0.00     0.040 A 
HETATM   12  C   UNN     0      31.954  33.983  -7.703  0.00  0.00     0.016 A 
HETATM   13  C   UNN     0      29.252  33.393  -5.487  0.00  0.00     0.054 A 
HETATM   14  C   UNN     0      29.182  32.053  -5.548  0.00  0.00     0.010 A 
HETATM   15  C   UNN     0      28.134  31.355  -4.705  0.00  0.00     0.068 C 
HETATM   16  C   UNN     0      32.814  33.303  -8.474  0.00  0.00     0.001 A 
HETATM   17  C   UNN     0      32.731  31.969  -8.511  0.00  0.00     0.002 A 
BRANCH  11  18
HETATM   18  N   UNN     0      30.172  35.323  -6.096  0.00  0.00    -0.398 N 
HETATM   19  H   UNN     0      29.366  35.889  -6.457  0.00  0.00     0.156 HD
HETATM   20  H   UNN     0      30.962  35.848  -5.652  0.00  0.00     0.156 HD
ENDBRANCH  11  18
ENDBRANCH   6   7
ENDBRANCH   5   6
ENDBRANCH   4   5
ENDBRANCH   3   4
ENDBRANCH   2   3
ENDBRANCH   1   2
BRANCH   1  21
HETATM   21  C   UNN     0      24.993  27.334  -4.867  0.00  0.00     0.000 C 
BRANCH  21  22
HETATM   22  C   UNN     0      24.017  26.194  -5.203  0.00  0.00     0.002 C 
BRANCH  22  23
HETATM   23  C   UNN     0      23.909  25.946  -6.718  0.00  0.00     0.020 C 
BRANCH  23  24
HETATM   24  C   UNN     0      24.235  24.490  -7.091  0.00  0.00     0.129 C 
BRANCH  24  25
HETATM   25  N   UNN     0      24.638  24.346  -8.573  0.00  0.00    -0.350 N 
HETATM   26  C   UNN     0      23.742  24.173  -9.527  0.00  0.00     0.047 A 
HETATM   27  C   UNN     0      24.089  24.061 -10.833  0.00  0.00     0.017 A 
HETATM   28  C   UNN     0      22.423  24.093  -9.245  0.00  0.00     0.030 A 
HETATM   29  C   UNN     0      25.388  24.121 -11.174  0.00  0.00     0.040 A 
HETATM   30  C   UNN     0      23.144  23.889 -11.780  0.00  0.00     0.016 A 
HETATM   31  N   UNN     0      25.829  24.027 -12.361  0.00  0.00    -0.398 N 
HETATM   32  C   UNN     0      26.292  24.285 -10.200  0.00  0.00     0.054 A 
HETATM   33  H   UNN     0      26.859  24.082 -12.549  0.00  0.00     0.156 HD
HETATM   34  H   UNN     0      25.198  23.896 -13.186  0.00  0.00     0.156 HD
HETATM   35  C   UNN     0      25.904  24.393  -8.920  0.00  0.00     0.010 A 
HETATM   36  C   UNN     0      26.977  24.563  -7.862  0.00  0.00     0.068 C 
HETATM   37  C   UNN     0      21.844  23.819 -11.468  0.00  0.00     0.001 A 
HETATM   38  C   UNN     0      21.483  23.920 -10.185  0.00  0.00     0.002 A 
ENDBRANCH  24  25
ENDBRANCH  23  24
ENDBRANCH  22  23
ENDBRANCH  21  22
ENDBRANCH   1  21
TORSDOF 12
ENDMDL
MODEL 8
REMARK VINA RESULT:      -6.5      5.975     11.854
REMARK  12 active torsions:
REMARK  status: ('A' for Active; 'I' for Inactive)
REMARK    1  A    between atoms: N_1  and  C_13 
REMARK    2  A    between atoms: N_2  and  C_14 
REMARK    3  A    between atoms: N_4  and  C_24 
REMARK    4  A    between atoms: C_5  and  C_6 
REMARK    5  A    between atoms: C_5  and  C_7 
REMARK    6  A    between atoms: C_6  and  C_8 
REMARK    7  A    between atoms: C_7  and  C_9 
REMARK    8  A    between atoms: C_8  and  C_10 
REMARK    9  A    between atoms: C_9  and  C_11 
REMARK   10  A    between atoms: C_10  and  C_12 
REMARK   11  A    between atoms: C_11  and  C_13 
REMARK   12  A    between atoms: C_12  and  C_14 
ROOT
HETATM    1  C   UNN     0      32.864  28.196   0.163  0.00  0.00     0.000 C 
ENDROOT
BRANCH   1   2
HETATM    2  C   UNN     0      33.187  26.741  -0.221  0.00  0.00     0.000 C 
BRANCH   2   3
HETATM    3  C   UNN     0      34.701  26.465  -0.230  0.00  0.00     0.000 C 
BRANCH   3   4
HETATM    4  C   UNN     0      35.044  25.137  -0.927  0.00  0.00     0.002 C 
BRANCH   4   5
HETATM    5  C   UNN     0      34.188  24.898  -2.181  0.00  0.00     0.020 C 
BRANCH   5   6
HETATM    6  C   UNN     0      35.033  24.894  -3.468  0.00  0.00     0.129 C 
BRANCH   6   7
HETATM    7  N   UNN     0      35.966  26.119  -3.553  0.00  0.00    -0.350 N 
HETATM    8  C   UNN     0      37.273  26.013  -3.398  0.00  0.00     0.047 A 
HETATM    9  C   UNN     0      38.101  27.083  -3.485  0.00  0.00     0.017 A 
HETATM   10  C   UNN     0      37.854  24.822  -3.133  0.00  0.00     0.030 A 
HETATM   11  C   UNN     0      37.579  28.297  -3.735  0.00  0.00     0.040 A 
HETATM   12  C   UNN     0      39.432  26.936  -3.324  0.00  0.00     0.016 A 
HETATM   13  C   UNN     0      36.253  28.400  -3.881  0.00  0.00     0.054 A 
HETATM   14  C   UNN     0      35.470  27.313  -3.788  0.00  0.00     0.010 A 
HETATM   15  C   UNN     0      33.974  27.496  -3.949  0.00  0.00     0.068 C 
HETATM   16  C   UNN     0      39.977  25.739  -3.068  0.00  0.00     0.001 A 
HETATM   17  C   UNN     0      39.176  24.673  -2.970  0.00  0.00     0.002 A 
BRANCH  11  18
HETATM   18  N   UNN     0      38.255  29.366  -3.839  0.00  0.00    -0.398 N 
HETATM   19  H   UNN     0      37.930  30.140  -4.468  0.00  0.00     0.156 HD
HETATM   20  H   UNN     0      39.147  29.522  -3.313  0.00  0.00     0.156 HD
ENDBRANCH  11  18
ENDBRANCH   6   7
ENDBRANCH   5   6
ENDBRANCH   4   5
ENDBRANCH   3   4
ENDBRANCH   2   3
ENDBRANCH   1   2
BRANCH   1  21
HETATM   21  C   UNN     0      31.368  28.399   0.467  0.00  0.00     0.000 C 
BRANCH  21  22
HETATM   22  C   UNN     0      30.815  29.682  -0.175  0.00  0.00     0.002 C 
BRANCH  22  23
HETATM   23  C   UNN     0      31.387  29.924  -1.583  0.00  0.00     0.020 C 
BRANCH  23  24
HETATM   24  C   UNN     0      30.496  30.861  -2.416  0.00  0.00     0.129 C 
BRANCH  24  25
HETATM   25  N   UNN     0      29.189  30.174  -2.863  0.00  0.00    -0.350 N 
HETATM   26  C   UNN     0      29.178  29.220  -3.775  0.00  0.00     0.047 A 
HETATM   27  C   UNN     0      28.034  28.602  -4.161  0.00  0.00     0.017 A 
HETATM   28  C   UNN     0      30.316  28.812  -4.378  0.00  0.00     0.030 A 
HETATM   29  C   UNN     0      26.868  28.974  -3.604  0.00  0.00     0.040 A 
HETATM   30  C   UNN     0      28.063  27.628  -5.094  0.00  0.00     0.016 A 
HETATM   31  N   UNN     0      25.739  28.467  -3.888  0.00  0.00    -0.398 N 
HETATM   32  C   UNN     0      26.885  29.949  -2.689  0.00  0.00     0.054 A 
HETATM   33  H   UNN     0      24.870  28.811  -3.411  0.00  0.00     0.156 HD
HETATM   34  H   UNN     0      25.627  27.701  -4.592  0.00  0.00     0.156 HD
HETATM   35  C   UNN     0      28.040  30.533  -2.334  0.00  0.00     0.010 A 
HETATM   36  C   UNN     0      27.992  31.642  -1.302  0.00  0.00     0.068 C 
HETATM   37  C   UNN     0      29.210  27.243  -5.670  0.00  0.00     0.001 A 
HETATM   38  C   UNN     0      30.347  27.846  -5.307  0.00  0.00     0.002 A 
ENDBRANCH  24  25
ENDBRANCH  23  24
ENDBRANCH  22  23
ENDBRANCH  21  22
ENDBRANCH   1  21
TORSDOF 12
ENDMDL
MODEL 9
REMARK VINA RESULT:      -6.5      4.320      6.852
REMARK  12 active torsions:
REMARK  status: ('A' for Active; 'I' for Inactive)
REMARK    1  A    between atoms: N_1  and  C_13 
REMARK    2  A    between atoms: N_2  and  C_14 
REMARK    3  A    between atoms: N_4  and  C_24 
REMARK    4  A    between atoms: C_5  and  C_6 
REMARK    5  A    between atoms: C_5  and  C_7 
REMARK    6  A    between atoms: C_6  and  C_8 
REMARK    7  A    between atoms: C_7  and  C_9 
REMARK    8  A    between atoms: C_8  and  C_10 
REMARK    9  A    between atoms: C_9  and  C_11 
REMARK   10  A    between atoms: C_10  and  C_12 
REMARK   11  A    between atoms: C_11  and  C_13 
REMARK   12  A    between atoms: C_12  and  C_14 
ROOT
HETATM    1  C   UNN     0      29.740  29.332   1.126  0.00  0.00     0.000 C 
ENDROOT
BRANCH   1   2
HETATM    2  C   UNN     0      28.853  30.420   0.497  0.00  0.00     0.000 C 
BRANCH   2   3
HETATM    3  C   UNN     0      27.376  30.271   0.900  0.00  0.00     0.000 C 
BRANCH   3   4
HETATM    4  C   UNN     0      26.533  29.621  -0.211  0.00  0.00     0.002 C 
BRANCH   4   5
HETATM    5  C   UNN     0      27.296  29.526  -1.542  0.00  0.00     0.020 C 
BRANCH   5   6
HETATM    6  C   UNN     0      26.459  30.038  -2.729  0.00  0.00     0.129 C 
BRANCH   6   7
HETATM    7  N   UNN     0      26.259  28.955  -3.808  0.00  0.00    -0.350 N 
HETATM    8  C   UNN     0      27.279  28.386  -4.423  0.00  0.00     0.047 A 
HETATM    9  C   UNN     0      27.111  27.423  -5.363  0.00  0.00     0.017 A 
HETATM   10  C   UNN     0      28.553  28.746  -4.151  0.00  0.00     0.030 A 
HETATM   11  C   UNN     0      25.865  27.032  -5.685  0.00  0.00     0.040 A 
HETATM   12  C   UNN     0      28.177  26.862  -5.969  0.00  0.00     0.016 A 
HETATM   13  C   UNN     0      24.836  27.619  -5.065  0.00  0.00     0.054 A 
HETATM   14  C   UNN     0      25.048  28.568  -4.139  0.00  0.00     0.010 A 
HETATM   15  C   UNN     0      23.840  29.206  -3.482  0.00  0.00     0.068 C 
HETATM   16  C   UNN     0      29.429  27.237  -5.671  0.00  0.00     0.001 A 
HETATM   17  C   UNN     0      29.615  28.192  -4.754  0.00  0.00     0.002 A 
BRANCH  11  18
HETATM   18  N   UNN     0      25.588  26.141  -6.546  0.00  0.00    -0.398 N 
HETATM   19  H   UNN     0      26.090  26.119  -7.466  0.00  0.00     0.156 HD
HETATM   20  H   UNN     0      24.863  25.404  -6.380  0.00  0.00     0.156 HD
ENDBRANCH  11  18
ENDBRANCH   6   7
ENDBRANCH   5   6
ENDBRANCH   4   5
ENDBRANCH   3   4
ENDBRANCH   2   3
ENDBRANCH   1   2
BRANCH   1  21
HETATM   21  C   UNN     0      30.856  28.867   0.172  0.00  0.00     0.000 C 
BRANCH  21  22
HETATM   22  C   UNN     0      30.751  29.531  -1.210  0.00  0.00     0.002 C 
BRANCH  22  23
HETATM   23  C   UNN     0      32.061  29.424  -2.011  0.00  0.00     0.020 C 
BRANCH  23  24
HETATM   24  C   UNN     0      32.481  30.775  -2.616  0.00  0.00     0.129 C 
BRANCH  24  25
HETATM   25  N   UNN     0      31.862  31.003  -4.010  0.00  0.00    -0.350 N 
HETATM   26  C   UNN     0      32.319  30.391  -5.086  0.00  0.00     0.047 A 
HETATM   27  C   UNN     0      31.769  30.577  -6.313  0.00  0.00     0.017 A 
HETATM   28  C   UNN     0      33.371  29.546  -5.019  0.00  0.00     0.030 A 
HETATM   29  C   UNN     0      30.727  31.417  -6.443  0.00  0.00     0.040 A 
HETATM   30  C   UNN     0      32.262  29.931  -7.389  0.00  0.00     0.016 A 
HETATM   31  N   UNN     0      30.135  31.668  -7.538  0.00  0.00    -0.398 N 
HETATM   32  C   UNN     0      30.276  32.042  -5.350  0.00  0.00     0.054 A 
HETATM   33  H   UNN     0      29.328  32.337  -7.562  0.00  0.00     0.156 HD
HETATM   34  H   UNN     0      30.418  31.227  -8.444  0.00  0.00     0.156 HD
HETATM   35  C   UNN     0      30.849  31.828  -4.155  0.00  0.00     0.010 A 
HETATM   36  C   UNN     0      30.301  32.578  -2.957  0.00  0.00     0.068 C 
HETATM   37  C   UNN     0      33.303  29.095  -7.288  0.00  0.00     0.001 A 
HETATM   38  C   UNN     0      33.863  28.904  -6.089  0.00  0.00     0.002 A 
ENDBRANCH  24  25
ENDBRANCH  23  24
ENDBRANCH  22  23
ENDBRANCH  21  22
ENDBRANCH   1  21
TORSDOF 12
ENDMDL
