REMARK  5 active torsions:
REMARK  status: ('A' for Active; 'I' for Inactive)
REMARK    1  A    between atoms: O_3  and  C_17 
REMARK       I    between atoms: N_7  and  C_19 
REMARK    2  A    between atoms: N_7  and  C_20 
REMARK    3  A    between atoms: C_10  and  C_14 
REMARK    4  A    between atoms: C_11  and  C_17 
REMARK    5  A    between atoms: C_18  and  C_19 
ROOT
HETATM    1 Cl   UNN     0      -2.474   2.847   1.655  0.00  0.00    -0.083 Cl
HETATM    2 Cl   UNN     0      -7.490   1.833   0.483  0.00  0.00    -0.084 Cl
HETATM    3  N   UNN     0      -3.756  -1.336  -0.444  0.00  0.00    -0.349 N 
HETATM    4  C   UNN     0      -3.248   0.485   0.496  0.00  0.00     0.025 A 
HETATM    5  C   UNN     0      -4.246  -0.257  -0.012  0.00  0.00     0.047 A 
HETATM    6  C   UNN     0      -2.104  -0.226   0.315  0.00  0.00     0.012 A 
HETATM    7  C   UNN     0      -2.504  -1.389  -0.254  0.00  0.00     0.118 A 
HETATM    8  C   UNN     0      -3.583   1.693   0.995  0.00  0.00     0.049 A 
HETATM    9  C   UNN     0      -5.534   0.103  -0.035  0.00  0.00     0.054 A 
HETATM   10  C   UNN     0      -4.875   2.080   0.983  0.00  0.00     0.048 A 
HETATM   11  C   UNN     0      -5.846   1.300   0.481  0.00  0.00     0.037 A 
HETATM   12  H   UNN     0      -4.326  -2.103  -0.870  0.00  0.00     0.166 HD
ENDROOT
BRANCH   6  13
HETATM   13  C   UNN     0      -0.877   0.203   0.668  0.00  0.00     0.020 C 
HETATM   14  C   UNN     0       0.323  -0.181   0.196  0.00  0.00     0.075 C 
BRANCH  14  15
HETATM   15  C   UNN     0       1.514   0.311   0.637  0.00  0.00     0.245 C 
HETATM   16  O   UNN     0       1.645   1.116   1.526  0.00  0.00    -0.268 OA
HETATM   17  N   UNN     0       2.560  -0.226  -0.058  0.00  0.00    -0.324 N 
HETATM   18  H   UNN     0       2.331  -0.901  -0.774  0.00  0.00     0.169 HD
BRANCH  17  19
HETATM   19  C   UNN     0       3.897  -0.057  -0.000  0.00  0.00     0.035 A 
HETATM   20  C   UNN     0       4.608  -0.796  -0.875  0.00  0.00     0.029 A 
HETATM   21  C   UNN     0       5.947  -0.726  -0.926  0.00  0.00     0.002 A 
HETATM   22  C   UNN     0       6.605   0.093  -0.093  0.00  0.00     0.000 A 
HETATM   23  C   UNN     0       5.913   0.835   0.783  0.00  0.00     0.002 A 
HETATM   24  C   UNN     0       4.573   0.760   0.828  0.00  0.00     0.029 A 
ENDBRANCH  17  19
ENDBRANCH  14  15
ENDBRANCH   6  13
BRANCH   7  25
HETATM   25  C   UNN     0      -1.859  -2.545  -0.580  0.00  0.00     0.194 C 
HETATM   26  O   UNN     0      -0.713  -2.822  -0.309  0.00  0.00    -0.645 OA
BRANCH  25  27
HETATM   27  O   UNN     0      -2.540  -3.539  -1.208  0.00  0.00    -0.772 OA
HETATM   28  H   UNN     0      -1.942  -4.296  -1.315  0.00  0.00     0.167 HD
ENDBRANCH  25  27
ENDBRANCH   7  25
TORSDOF 5
