REMARK  7 active torsions:
REMARK  status: ('A' for Active; 'I' for Inactive)
REMARK    1  A    between atoms: C_1  and  C_3 
REMARK    2  A    between atoms: C_1  and  O_10 
REMARK    3  A    between atoms: N_2  and  C_3 
REMARK    4  A    between atoms: C_3  and  C_4 
REMARK    5  A    between atoms: C_4  and  C_5 
REMARK    6  A    between atoms: C_5  and  C_6 
REMARK    7  A    between atoms: C_6  and  O_8 
ROOT
HETATM    1  C           1       0.752  -0.866  -0.791  0.00  0.00     0.315 C 
ENDROOT
BRANCH   1   2
HETATM    2  C           1       1.841   0.182  -0.925  0.00  0.00     0.173 C 
HETATM    3  O           1       2.324   0.575  -1.960  0.00  0.00    -0.648 OA
BRANCH   2   4
HETATM    4  O           1       2.267   0.638   0.269  0.00  0.00    -0.775 OA
HETATM    5  H           1       2.989   1.267   0.111  0.00  0.00     0.167 HD
ENDBRANCH   2   4
ENDBRANCH   1   2
BRANCH   1   6
HETATM    6  N           1       1.383  -2.167  -0.524  0.00  0.00     0.093 N 
HETATM    7  H           1       0.667  -2.899  -0.375  0.00  0.00     0.314 HD
HETATM    8  H           1       1.926  -2.487  -1.345  0.00  0.00     0.314 HD
ENDBRANCH   1   6
BRANCH   1   9
HETATM    9  C           1      -0.312  -0.566   0.279  0.00  0.00     0.057 C 
BRANCH   9  10
HETATM   10  C           1      -1.064   0.748   0.021  0.00  0.00     0.112 C 
BRANCH  10  11
HETATM   11  C           1      -2.137   0.984   1.068  0.00  0.00     0.139 C 
HETATM   12  O           1      -3.274   0.582   1.032  0.00  0.00    -0.650 OA
BRANCH  11  13
HETATM   13  O           1      -1.674   1.717   2.100  0.00  0.00    -0.776 OA
HETATM   14  H           1      -2.395   1.829   2.742  0.00  0.00     0.167 HD
ENDBRANCH  11  13
ENDBRANCH  10  11
ENDBRANCH   9  10
ENDBRANCH   1   9
TORSDOF 7
