MODEL 1
REMARK VINA RESULT:      -6.4      0.000      0.000
REMARK  5 active torsions:
REMARK  status: ('A' for Active; 'I' for Inactive)
REMARK    1  A    between atoms: O_1  and  C_13 
REMARK    2  A    between atoms: O_2  and  C_23 
REMARK    3  A    between atoms: C_7  and  C_13 
REMARK    4  A    between atoms: C_9  and  C_14 
REMARK    5  A    between atoms: C_13  and  C_15 
ROOT
HETATM    1  N   UNN     0      26.779  24.363  -9.164  0.00  0.00    -0.365 N 
HETATM    2  HN  UNN     0      27.715  24.530  -9.534  1.00  0.00     0.165 HD
HETATM    3  C   UNN     0      24.311  23.916  -8.179  0.00  0.00    -0.014 A 
HETATM    4  C   UNN     0      24.521  24.080  -9.506  0.00  0.00     0.002 A 
HETATM    5  C   UNN     0      25.392  23.997  -7.383  0.00  0.00     0.027 A 
HETATM    6  C   UNN     0      25.781  24.298  -9.941  0.00  0.00     0.043 A 
HETATM    7  C   UNN     0      23.547  24.039 -10.435  0.00  0.00     0.051 A 
HETATM    8  C   UNN     0      26.596  24.220  -7.923  0.00  0.00     0.089 A 
HETATM    9  C   UNN     0      26.014  24.455 -11.255  0.00  0.00     0.033 A 
HETATM   10  C   UNN     0      23.744  24.193 -11.760  0.00  0.00     0.069 A 
HETATM   11  C   UNN     0      25.015  24.402 -12.148  0.00  0.00     0.039 A 
ENDROOT
BRANCH   3  12
HETATM   12  C   UNN     0      22.968  23.653  -7.510  0.00  0.00     0.185 C 
BRANCH  12  13
HETATM   13  O   UNN     0      23.168  23.676  -6.104  0.00  0.00    -0.389 OA
HETATM   14  H   UNN     0      24.059  23.999  -5.941  0.00  0.00     0.210 HD
ENDBRANCH  12  13
BRANCH  12  15
HETATM   15  C   UNN     0      22.389  22.286  -7.906  0.00  0.00     0.256 C 
HETATM   16  N   UNN     0      21.039  22.373  -8.464  0.00  0.00     0.096 N 
HETATM   17  C   UNN     0      20.044  22.573  -7.414  0.00  0.00     0.282 C 
HETATM   18  C   UNN     0      20.733  21.133  -9.171  0.00  0.00     0.273 C 
HETATM   19  C   UNN     0      19.911  21.320  -6.526  0.00  0.00     0.040 C 
HETATM   20  C   UNN     0      21.127  20.419  -6.815  0.00  0.00    -0.001 C 
HETATM   21  C   UNN     0      22.408  21.268  -6.746  0.00  0.00     0.044 C 
HETATM   22  C   UNN     0      20.985  19.913  -8.263  0.00  0.00     0.035 C 
BRANCH  19  23
HETATM   23  C   UNN     0      19.778  21.653  -5.057  0.00  0.00    -0.030 C 
HETATM   24  C   UNN     0      19.901  22.891  -4.559  0.00  0.00     0.007 C 
ENDBRANCH  19  23
ENDBRANCH  12  15
ENDBRANCH   3  12
BRANCH  10  25
HETATM   25  O   UNN     0      22.659  24.126 -12.602  0.00  0.00    -0.356 OA
HETATM   26  C   UNN     0      21.371  24.019 -12.043  0.00  0.00     0.210 C 
ENDBRANCH  10  25
TORSDOF 5
ENDMDL
MODEL 2
REMARK VINA RESULT:      -6.1     10.103     13.141
REMARK  5 active torsions:
REMARK  status: ('A' for Active; 'I' for Inactive)
REMARK    1  A    between atoms: O_1  and  C_13 
REMARK    2  A    between atoms: O_2  and  C_23 
REMARK    3  A    between atoms: C_7  and  C_13 
REMARK    4  A    between atoms: C_9  and  C_14 
REMARK    5  A    between atoms: C_13  and  C_15 
ROOT
HETATM    1  N   UNN     0      29.630  28.930  -6.078  0.00  0.00    -0.365 N 
HETATM    2  HN  UNN     0      28.686  29.065  -6.441  1.00  0.00     0.165 HD
HETATM    3  C   UNN     0      32.120  28.574  -5.111  0.00  0.00    -0.014 A 
HETATM    4  C   UNN     0      31.843  29.559  -5.997  0.00  0.00     0.002 A 
HETATM    5  C   UNN     0      31.095  27.782  -4.749  0.00  0.00     0.027 A 
HETATM    6  C   UNN     0      30.575  29.691  -6.444  0.00  0.00     0.043 A 
HETATM    7  C   UNN     0      32.755  30.429  -6.469  0.00  0.00     0.051 A 
HETATM    8  C   UNN     0      29.878  28.002  -5.259  0.00  0.00     0.089 A 
HETATM    9  C   UNN     0      30.275  30.667  -7.317  0.00  0.00     0.033 A 
HETATM   10  C   UNN     0      32.490  31.419  -7.345  0.00  0.00     0.069 A 
HETATM   11  C   UNN     0      31.214  31.516  -7.758  0.00  0.00     0.039 A 
ENDROOT
BRANCH   3  12
HETATM   12  C   UNN     0      33.481  28.281  -4.495  0.00  0.00     0.185 C 
BRANCH  12  13
HETATM   13  O   UNN     0      34.232  27.523  -5.432  0.00  0.00    -0.389 OA
HETATM   14  H   UNN     0      33.625  27.214  -6.111  0.00  0.00     0.210 HD
ENDBRANCH  12  13
BRANCH  12  15
HETATM   15  C   UNN     0      33.359  27.474  -3.192  0.00  0.00     0.256 C 
HETATM   16  N   UNN     0      33.948  28.153  -2.037  0.00  0.00     0.096 N 
HETATM   17  C   UNN     0      35.404  28.051  -2.049  0.00  0.00     0.282 C 
HETATM   18  C   UNN     0      33.445  27.537  -0.813  0.00  0.00     0.273 C 
HETATM   19  C   UNN     0      35.864  26.600  -1.800  0.00  0.00     0.040 C 
HETATM   20  C   UNN     0      34.635  25.690  -1.987  0.00  0.00    -0.001 C 
HETATM   21  C   UNN     0      33.941  26.050  -3.312  0.00  0.00     0.044 C 
HETATM   22  C   UNN     0      33.651  26.011  -0.846  0.00  0.00     0.035 C 
BRANCH  19  23
HETATM   23  C   UNN     0      37.023  26.192  -2.680  0.00  0.00    -0.030 C 
HETATM   24  C   UNN     0      37.461  24.931  -2.801  0.00  0.00     0.007 C 
ENDBRANCH  19  23
ENDBRANCH  12  15
ENDBRANCH   3  12
BRANCH  10  25
HETATM   25  O   UNN     0      33.518  32.242  -7.744  0.00  0.00    -0.356 OA
HETATM   26  C   UNN     0      33.299  33.134  -8.810  0.00  0.00     0.210 C 
ENDBRANCH  10  25
TORSDOF 5
ENDMDL
MODEL 3
REMARK VINA RESULT:      -6.0      8.905     12.060
REMARK  5 active torsions:
REMARK  status: ('A' for Active; 'I' for Inactive)
REMARK    1  A    between atoms: O_1  and  C_13 
REMARK    2  A    between atoms: O_2  and  C_23 
REMARK    3  A    between atoms: C_7  and  C_13 
REMARK    4  A    between atoms: C_9  and  C_14 
REMARK    5  A    between atoms: C_13  and  C_15 
ROOT
HETATM    1  N   UNN     0      34.344  32.598  -7.209  0.00  0.00    -0.365 N 
HETATM    2  HN  UNN     0      35.207  33.141  -7.173  1.00  0.00     0.165 HD
HETATM    3  C   UNN     0      32.060  31.170  -7.303  0.00  0.00    -0.014 A 
HETATM    4  C   UNN     0      33.177  30.674  -6.722  0.00  0.00     0.002 A 
HETATM    5  C   UNN     0      32.153  32.402  -7.835  0.00  0.00     0.027 A 
HETATM    6  C   UNN     0      34.292  31.437  -6.703  0.00  0.00     0.043 A 
HETATM    7  C   UNN     0      33.256  29.456  -6.155  0.00  0.00     0.051 A 
HETATM    8  C   UNN     0      33.311  33.069  -7.760  0.00  0.00     0.089 A 
HETATM    9  C   UNN     0      35.410  30.968  -6.125  0.00  0.00     0.033 A 
HETATM   10  C   UNN     0      34.360  28.953  -5.567  0.00  0.00     0.069 A 
HETATM   11  C   UNN     0      35.444  29.750  -5.566  0.00  0.00     0.039 A 
ENDROOT
BRANCH   3  12
HETATM   12  C   UNN     0      30.716  30.462  -7.411  0.00  0.00     0.185 C 
BRANCH  12  13
HETATM   13  O   UNN     0      30.269  30.575  -8.754  0.00  0.00    -0.389 OA
HETATM   14  H   UNN     0      29.349  30.295  -8.780  0.00  0.00     0.210 HD
ENDBRANCH  12  13
BRANCH  12  15
HETATM   15  C   UNN     0      29.662  31.089  -6.485  0.00  0.00     0.256 C 
HETATM   16  N   UNN     0      29.984  30.941  -5.064  0.00  0.00     0.096 N 
HETATM   17  C   UNN     0      29.698  29.589  -4.594  0.00  0.00     0.282 C 
HETATM   18  C   UNN     0      29.181  31.886  -4.292  0.00  0.00     0.273 C 
HETATM   19  C   UNN     0      28.181  29.312  -4.580  0.00  0.00     0.040 C 
HETATM   20  C   UNN     0      27.503  30.420  -5.408  0.00  0.00    -0.001 C 
HETATM   21  C   UNN     0      28.238  30.561  -6.754  0.00  0.00     0.044 C 
HETATM   22  C   UNN     0      27.687  31.742  -4.640  0.00  0.00     0.035 C 
BRANCH  19  23
HETATM   23  C   UNN     0      27.833  27.927  -5.075  0.00  0.00    -0.030 C 
HETATM   24  C   UNN     0      28.722  27.080  -5.612  0.00  0.00     0.007 C 
ENDBRANCH  19  23
ENDBRANCH  12  15
ENDBRANCH   3  12
BRANCH  10  25
HETATM   25  O   UNN     0      34.303  27.692  -5.021  0.00  0.00    -0.356 OA
HETATM   26  C   UNN     0      33.392  27.444  -3.977  0.00  0.00     0.210 C 
ENDBRANCH  10  25
TORSDOF 5
ENDMDL
MODEL 4
REMARK VINA RESULT:      -5.8     11.156     13.604
REMARK  5 active torsions:
REMARK  status: ('A' for Active; 'I' for Inactive)
REMARK    1  A    between atoms: O_1  and  C_13 
REMARK    2  A    between atoms: O_2  and  C_23 
REMARK    3  A    between atoms: C_7  and  C_13 
REMARK    4  A    between atoms: C_9  and  C_14 
REMARK    5  A    between atoms: C_13  and  C_15 
ROOT
HETATM    1  N   UNN     0      30.316  31.593  -7.766  0.00  0.00    -0.365 N 
HETATM    2  HN  UNN     0      29.534  32.129  -8.141  1.00  0.00     0.165 HD
HETATM    3  C   UNN     0      32.376  30.172  -6.766  0.00  0.00    -0.014 A 
HETATM    4  C   UNN     0      32.565  31.395  -7.316  0.00  0.00     0.002 A 
HETATM    5  C   UNN     0      31.116  29.704  -6.753  0.00  0.00     0.027 A 
HETATM    6  C   UNN     0      31.493  32.061  -7.798  0.00  0.00     0.043 A 
HETATM    7  C   UNN     0      33.762  32.001  -7.417  0.00  0.00     0.051 A 
HETATM    8  C   UNN     0      30.128  30.450  -7.262  0.00  0.00     0.089 A 
HETATM    9  C   UNN     0      31.655  33.279  -8.341  0.00  0.00     0.033 A 
HETATM   10  C   UNN     0      33.962  33.220  -7.956  0.00  0.00     0.069 A 
HETATM   11  C   UNN     0      32.866  33.849  -8.417  0.00  0.00     0.039 A 
ENDROOT
BRANCH   3  12
HETATM   12  C   UNN     0      33.458  29.283  -6.167  0.00  0.00     0.185 C 
BRANCH  12  13
HETATM   13  O   UNN     0      33.396  28.021  -6.816  0.00  0.00    -0.389 OA
HETATM   14  H   UNN     0      33.478  28.175  -7.762  0.00  0.00     0.210 HD
ENDBRANCH  12  13
BRANCH  12  15
HETATM   15  C   UNN     0      33.257  29.074  -4.658  0.00  0.00     0.256 C 
HETATM   16  N   UNN     0      34.443  29.407  -3.868  0.00  0.00     0.096 N 
HETATM   17  C   UNN     0      35.450  28.354  -3.953  0.00  0.00     0.282 C 
HETATM   18  C   UNN     0      34.055  29.572  -2.469  0.00  0.00     0.273 C 
HETATM   19  C   UNN     0      34.977  27.071  -3.241  0.00  0.00     0.040 C 
HETATM   20  C   UNN     0      33.463  27.210  -2.999  0.00  0.00    -0.001 C 
HETATM   21  C   UNN     0      32.783  27.647  -4.308  0.00  0.00     0.044 C 
HETATM   22  C   UNN     0      33.267  28.344  -1.974  0.00  0.00     0.035 C 
BRANCH  19  23
HETATM   23  C   UNN     0      35.325  25.814  -4.005  0.00  0.00    -0.030 C 
HETATM   24  C   UNN     0      35.347  24.590  -3.459  0.00  0.00     0.007 C 
ENDBRANCH  19  23
ENDBRANCH  12  15
ENDBRANCH   3  12
BRANCH  10  25
HETATM   25  O   UNN     0      35.241  33.726  -7.993  0.00  0.00    -0.356 OA
HETATM   26  C   UNN     0      36.230  33.132  -7.186  0.00  0.00     0.210 C 
ENDBRANCH  10  25
TORSDOF 5
ENDMDL
MODEL 5
REMARK VINA RESULT:      -5.7     10.141     13.303
REMARK  5 active torsions:
REMARK  status: ('A' for Active; 'I' for Inactive)
REMARK    1  A    between atoms: O_1  and  C_13 
REMARK    2  A    between atoms: O_2  and  C_23 
REMARK    3  A    between atoms: C_7  and  C_13 
REMARK    4  A    between atoms: C_9  and  C_14 
REMARK    5  A    between atoms: C_13  and  C_15 
ROOT
HETATM    1  N   UNN     0      32.570  27.743   0.650  0.00  0.00    -0.365 N 
HETATM    2  HN  UNN     0      32.487  27.495   1.636  1.00  0.00     0.165 HD
HETATM    3  C   UNN     0      32.779  28.402  -1.955  0.00  0.00    -0.014 A 
HETATM    4  C   UNN     0      33.358  27.282  -1.463  0.00  0.00     0.002 A 
HETATM    5  C   UNN     0      32.107  29.169  -1.078  0.00  0.00     0.027 A 
HETATM    6  C   UNN     0      33.216  27.002  -0.149  0.00  0.00     0.043 A 
HETATM    7  C   UNN     0      34.075  26.415  -2.202  0.00  0.00     0.051 A 
HETATM    8  C   UNN     0      32.032  28.795   0.205  0.00  0.00     0.089 A 
HETATM    9  C   UNN     0      33.775  25.891   0.360  0.00  0.00     0.033 A 
HETATM   10  C   UNN     0      34.649  25.292  -1.726  0.00  0.00     0.069 A 
HETATM   11  C   UNN     0      34.477  25.050  -0.414  0.00  0.00     0.039 A 
ENDROOT
BRANCH   3  12
HETATM   12  C   UNN     0      32.825  28.872  -3.403  0.00  0.00     0.185 C 
BRANCH  12  13
HETATM   13  O   UNN     0      33.417  30.162  -3.425  0.00  0.00    -0.389 OA
HETATM   14  H   UNN     0      33.796  30.294  -4.299  0.00  0.00     0.210 HD
ENDBRANCH  12  13
BRANCH  12  15
HETATM   15  C   UNN     0      31.420  28.961  -4.020  0.00  0.00     0.256 C 
HETATM   16  N   UNN     0      31.193  27.975  -5.077  0.00  0.00     0.096 N 
HETATM   17  C   UNN     0      31.844  28.372  -6.321  0.00  0.00     0.282 C 
HETATM   18  C   UNN     0      29.757  27.854  -5.317  0.00  0.00     0.273 C 
HETATM   19  C   UNN     0      31.169  29.615  -6.933  0.00  0.00     0.040 C 
HETATM   20  C   UNN     0      30.272  30.235  -5.844  0.00  0.00    -0.001 C 
HETATM   21  C   UNN     0      31.085  30.373  -4.545  0.00  0.00     0.044 C 
HETATM   22  C   UNN     0      29.130  29.238  -5.572  0.00  0.00     0.035 C 
BRANCH  19  23
HETATM   23  C   UNN     0      32.162  30.607  -7.495  0.00  0.00    -0.030 C 
HETATM   24  C   UNN     0      31.814  31.740  -8.119  0.00  0.00     0.007 C 
ENDBRANCH  19  23
ENDBRANCH  12  15
ENDBRANCH   3  12
BRANCH  10  25
HETATM   25  O   UNN     0      35.353  24.490  -2.594  0.00  0.00    -0.356 OA
HETATM   26  C   UNN     0      35.718  25.006  -3.853  0.00  0.00     0.210 C 
ENDBRANCH  10  25
TORSDOF 5
ENDMDL
MODEL 6
REMARK VINA RESULT:      -5.6     17.769     19.689
REMARK  5 active torsions:
REMARK  status: ('A' for Active; 'I' for Inactive)
REMARK    1  A    between atoms: O_1  and  C_13 
REMARK    2  A    between atoms: O_2  and  C_23 
REMARK    3  A    between atoms: C_7  and  C_13 
REMARK    4  A    between atoms: C_9  and  C_14 
REMARK    5  A    between atoms: C_13  and  C_15 
ROOT
HETATM    1  N   UNN     0      38.614  24.437 -17.733  0.00  0.00    -0.365 N 
HETATM    2  HN  UNN     0      38.307  25.001 -18.525  1.00  0.00     0.165 HD
HETATM    3  C   UNN     0      39.432  22.956 -15.635  0.00  0.00    -0.014 A 
HETATM    4  C   UNN     0      39.510  22.486 -16.902  0.00  0.00     0.002 A 
HETATM    5  C   UNN     0      38.919  24.189 -15.479  0.00  0.00     0.027 A 
HETATM    6  C   UNN     0      39.088  23.276 -17.913  0.00  0.00     0.043 A 
HETATM    7  C   UNN     0      39.986  21.270 -17.228  0.00  0.00     0.051 A 
HETATM    8  C   UNN     0      38.529  24.884 -16.555  0.00  0.00     0.089 A 
HETATM    9  C   UNN     0      39.164  22.833 -19.180  0.00  0.00     0.033 A 
HETATM   10  C   UNN     0      40.076  20.794 -18.486  0.00  0.00     0.069 A 
HETATM   11  C   UNN     0      39.650  21.616 -19.461  0.00  0.00     0.039 A 
ENDROOT
BRANCH   3  12
HETATM   12  C   UNN     0      39.866  22.215 -14.377  0.00  0.00     0.185 C 
BRANCH  12  13
HETATM   13  O   UNN     0      38.712  21.998 -13.577  0.00  0.00    -0.389 OA
HETATM   14  H   UNN     0      38.906  21.274 -12.975  0.00  0.00     0.210 HD
ENDBRANCH  12  13
BRANCH  12  15
HETATM   15  C   UNN     0      40.888  23.022 -13.561  0.00  0.00     0.256 C 
HETATM   16  N   UNN     0      42.143  23.253 -14.278  0.00  0.00     0.096 N 
HETATM   17  C   UNN     0      42.979  22.056 -14.279  0.00  0.00     0.282 C 
HETATM   18  C   UNN     0      42.874  24.336 -13.626  0.00  0.00     0.273 C 
HETATM   19  C   UNN     0      43.506  21.742 -12.864  0.00  0.00     0.040 C 
HETATM   20  C   UNN     0      42.679  22.578 -11.869  0.00  0.00    -0.001 C 
HETATM   21  C   UNN     0      41.183  22.396 -12.182  0.00  0.00     0.044 C 
HETATM   22  C   UNN     0      43.027  24.058 -12.118  0.00  0.00     0.035 C 
BRANCH  19  23
HETATM   23  C   UNN     0      43.475  20.265 -12.541  0.00  0.00    -0.030 C 
HETATM   24  C   UNN     0      43.587  19.770 -11.301  0.00  0.00     0.007 C 
ENDBRANCH  19  23
ENDBRANCH  12  15
ENDBRANCH   3  12
BRANCH  10  25
HETATM   25  O   UNN     0      40.587  19.531 -18.680  0.00  0.00    -0.356 OA
HETATM   26  C   UNN     0      41.490  19.011 -17.734  0.00  0.00     0.210 C 
ENDBRANCH  10  25
TORSDOF 5
ENDMDL
MODEL 7
REMARK VINA RESULT:      -5.5     40.039     42.786
REMARK  5 active torsions:
REMARK  status: ('A' for Active; 'I' for Inactive)
REMARK    1  A    between atoms: O_1  and  C_13 
REMARK    2  A    between atoms: O_2  and  C_23 
REMARK    3  A    between atoms: C_7  and  C_13 
REMARK    4  A    between atoms: C_9  and  C_14 
REMARK    5  A    between atoms: C_13  and  C_15 
ROOT
HETATM    1  N   UNN     0      18.644  49.214  20.015  0.00  0.00    -0.365 N 
HETATM    2  HN  UNN     0      18.470  48.587  19.230  1.00  0.00     0.165 HD
HETATM    3  C   UNN     0      19.100  50.879  22.085  0.00  0.00    -0.014 A 
HETATM    4  C   UNN     0      19.984  49.910  21.752  0.00  0.00     0.002 A 
HETATM    5  C   UNN     0      17.985  50.960  21.338  0.00  0.00     0.027 A 
HETATM    6  C   UNN     0      19.703  49.107  20.703  0.00  0.00     0.043 A 
HETATM    7  C   UNN     0      21.141  49.687  22.404  0.00  0.00     0.051 A 
HETATM    8  C   UNN     0      17.807  50.110  20.320  0.00  0.00     0.089 A 
HETATM    9  C   UNN     0      20.570  48.144  20.350  0.00  0.00     0.033 A 
HETATM   10  C   UNN     0      22.033  48.730  22.078  0.00  0.00     0.069 A 
HETATM   11  C   UNN     0      21.714  47.959  21.023  0.00  0.00     0.039 A 
ENDROOT
BRANCH   3  12
HETATM   12  C   UNN     0      19.252  51.878  23.225  0.00  0.00     0.185 C 
BRANCH  12  13
HETATM   13  O   UNN     0      18.027  51.913  23.942  0.00  0.00    -0.389 OA
HETATM   14  H   UNN     0      17.832  51.017  24.232  0.00  0.00     0.210 HD
ENDBRANCH  12  13
BRANCH  12  15
HETATM   15  C   UNN     0      19.565  53.291  22.710  0.00  0.00     0.256 C 
HETATM   16  N   UNN     0      20.990  53.511  22.460  0.00  0.00     0.096 N 
HETATM   17  C   UNN     0      21.719  53.725  23.707  0.00  0.00     0.282 C 
HETATM   18  C   UNN     0      21.152  54.690  21.614  0.00  0.00     0.273 C 
HETATM   19  C   UNN     0      21.328  55.066  24.359  0.00  0.00     0.040 C 
HETATM   20  C   UNN     0      20.040  55.554  23.670  0.00  0.00    -0.001 C 
HETATM   21  C   UNN     0      19.022  54.400  23.635  0.00  0.00     0.044 C 
HETATM   22  C   UNN     0      20.402  55.896  22.213  0.00  0.00     0.035 C 
BRANCH  19  23
HETATM   23  C   UNN     0      21.178  54.967  25.860  0.00  0.00    -0.030 C 
HETATM   24  C   UNN     0      22.029  55.523  26.733  0.00  0.00     0.007 C 
ENDBRANCH  19  23
ENDBRANCH  12  15
ENDBRANCH   3  12
BRANCH  10  25
HETATM   25  O   UNN     0      23.181  48.613  22.828  0.00  0.00    -0.356 OA
HETATM   26  C   UNN     0      24.185  47.725  22.398  0.00  0.00     0.210 C 
ENDBRANCH  10  25
TORSDOF 5
ENDMDL
MODEL 8
REMARK VINA RESULT:      -5.5     13.778     16.819
REMARK  5 active torsions:
REMARK  status: ('A' for Active; 'I' for Inactive)
REMARK    1  A    between atoms: O_1  and  C_13 
REMARK    2  A    between atoms: O_2  and  C_23 
REMARK    3  A    between atoms: C_7  and  C_13 
REMARK    4  A    between atoms: C_9  and  C_14 
REMARK    5  A    between atoms: C_13  and  C_15 
ROOT
HETATM    1  N   UNN     0      41.384  23.645  -2.425  0.00  0.00    -0.365 N 
HETATM    2  HN  UNN     0      42.206  23.120  -2.724  1.00  0.00     0.165 HD
HETATM    3  C   UNN     0      39.205  25.021  -1.635  0.00  0.00    -0.014 A 
HETATM    4  C   UNN     0      40.080  25.539  -2.530  0.00  0.00     0.002 A 
HETATM    5  C   UNN     0      39.485  23.795  -1.158  0.00  0.00     0.027 A 
HETATM    6  C   UNN     0      41.152  24.800  -2.890  0.00  0.00     0.043 A 
HETATM    7  C   UNN     0      39.953  26.755  -3.093  0.00  0.00     0.051 A 
HETATM    8  C   UNN     0      40.579  23.154  -1.584  0.00  0.00     0.089 A 
HETATM    9  C   UNN     0      42.028  25.290  -3.783  0.00  0.00     0.033 A 
HETATM   10  C   UNN     0      40.812  27.278  -3.990  0.00  0.00     0.069 A 
HETATM   11  C   UNN     0      41.861  26.505  -4.324  0.00  0.00     0.039 A 
ENDROOT
BRANCH   3  12
HETATM   12  C   UNN     0      37.943  25.700  -1.121  0.00  0.00     0.185 C 
BRANCH  12  13
HETATM   13  O   UNN     0      37.801  25.375   0.254  0.00  0.00    -0.389 OA
HETATM   14  H   UNN     0      36.956  25.726   0.552  0.00  0.00     0.210 HD
ENDBRANCH  12  13
BRANCH  12  15
HETATM   15  C   UNN     0      36.690  25.226  -1.873  0.00  0.00     0.256 C 
HETATM   16  N   UNN     0      36.320  26.103  -2.985  0.00  0.00     0.096 N 
HETATM   17  C   UNN     0      35.662  27.316  -2.507  0.00  0.00     0.282 C 
HETATM   18  C   UNN     0      35.403  25.391  -3.871  0.00  0.00     0.273 C 
HETATM   19  C   UNN     0      34.276  27.000  -1.910  0.00  0.00     0.040 C 
HETATM   20  C   UNN     0      34.206  25.478  -1.687  0.00  0.00    -0.001 C 
HETATM   21  C   UNN     0      35.475  25.021  -0.945  0.00  0.00     0.044 C 
HETATM   22  C   UNN     0      34.217  24.812  -3.076  0.00  0.00     0.035 C 
BRANCH  19  23
HETATM   23  C   UNN     0      33.988  27.782  -0.649  0.00  0.00    -0.030 C 
HETATM   24  C   UNN     0      32.903  27.594   0.115  0.00  0.00     0.007 C 
ENDBRANCH  19  23
ENDBRANCH  12  15
ENDBRANCH   3  12
BRANCH  10  25
HETATM   25  O   UNN     0      40.561  28.534  -4.492  0.00  0.00    -0.356 OA
HETATM   26  C   UNN     0      40.963  28.833  -5.808  0.00  0.00     0.210 C 
ENDBRANCH  10  25
TORSDOF 5
ENDMDL
MODEL 9
REMARK VINA RESULT:      -5.5     33.802     36.539
REMARK  5 active torsions:
REMARK  status: ('A' for Active; 'I' for Inactive)
REMARK    1  A    between atoms: O_1  and  C_13 
REMARK    2  A    between atoms: O_2  and  C_23 
REMARK    3  A    between atoms: C_7  and  C_13 
REMARK    4  A    between atoms: C_9  and  C_14 
REMARK    5  A    between atoms: C_13  and  C_15 
ROOT
HETATM    1  N   UNN     0      25.603  44.237  20.484  0.00  0.00    -0.365 N 
HETATM    2  HN  UNN     0      26.590  44.341  20.248  1.00  0.00     0.165 HD
HETATM    3  C   UNN     0      22.994  43.956  21.098  0.00  0.00    -0.014 A 
HETATM    4  C   UNN     0      23.635  45.136  21.271  0.00  0.00     0.002 A 
HETATM    5  C   UNN     0      23.725  42.936  20.616  0.00  0.00     0.027 A 
HETATM    6  C   UNN     0      24.943  45.217  20.942  0.00  0.00     0.043 A 
HETATM    7  C   UNN     0      23.052  46.249  21.754  0.00  0.00     0.051 A 
HETATM    8  C   UNN     0      25.017  43.129  20.326  0.00  0.00     0.089 A 
HETATM    9  C   UNN     0      25.598  46.380  21.097  0.00  0.00     0.033 A 
HETATM   10  C   UNN     0      23.678  47.431  21.923  0.00  0.00     0.069 A 
HETATM   11  C   UNN     0      24.977  47.467  21.577  0.00  0.00     0.039 A 
ENDROOT
BRANCH   3  12
HETATM   12  C   UNN     0      21.527  43.682  21.403  0.00  0.00     0.185 C 
BRANCH  12  13
HETATM   13  O   UNN     0      21.469  42.839  22.545  0.00  0.00    -0.389 OA
HETATM   14  H   UNN     0      21.685  41.946  22.261  0.00  0.00     0.210 HD
ENDBRANCH  12  13
BRANCH  12  15
HETATM   15  C   UNN     0      20.821  42.979  20.234  0.00  0.00     0.256 C 
HETATM   16  N   UNN     0      20.732  43.810  19.032  0.00  0.00     0.096 N 
HETATM   17  C   UNN     0      19.680  44.814  19.159  0.00  0.00     0.282 C 
HETATM   18  C   UNN     0      20.432  42.959  17.884  0.00  0.00     0.273 C 
HETATM   19  C   UNN     0      18.283  44.161  19.166  0.00  0.00     0.040 C 
HETATM   20  C   UNN     0      18.481  42.652  19.404  0.00  0.00    -0.001 C 
HETATM   21  C   UNN     0      19.419  42.454  20.608  0.00  0.00     0.044 C 
HETATM   22  C   UNN     0      19.195  42.084  18.163  0.00  0.00     0.035 C 
BRANCH  19  23
HETATM   23  C   UNN     0      17.348  44.786  20.175  0.00  0.00    -0.030 C 
HETATM   24  C   UNN     0      17.562  45.975  20.755  0.00  0.00     0.007 C 
ENDBRANCH  19  23
ENDBRANCH  12  15
ENDBRANCH   3  12
BRANCH  10  25
HETATM   25  O   UNN     0      22.961  48.493  22.423  0.00  0.00    -0.356 OA
HETATM   26  C   UNN     0      21.567  48.362  22.572  0.00  0.00     0.210 C 
ENDBRANCH  10  25
TORSDOF 5
ENDMDL
