MODEL 1
REMARK VINA RESULT:      -4.5      0.000      0.000
REMARK  3 active torsions:
REMARK  status: ('A' for Active; 'I' for Inactive)
REMARK    1  A    between atoms: O_7  and  C_8 
REMARK    2  A    between atoms: O_7  and  C_10 
REMARK    3  A    between atoms: C_8  and  C_9 
ROOT
HETATM    1  F   UNN     0      18.792  30.896  29.575  0.00  0.00    -0.171 F 
HETATM    2  F   UNN     0      18.470  32.987  29.995  0.00  0.00    -0.171 F 
HETATM    3  C   UNN     0      19.342  31.980  30.152  0.00  0.00     0.402 C 
ENDROOT
BRANCH   3   4
HETATM    4  O   UNN     0      20.601  32.242  29.527  0.00  0.00    -0.260 OA
BRANCH   4   5
HETATM    5  C   UNN     0      20.536  32.527  28.125  0.00  0.00     0.504 C 
HETATM    6  F   UNN     0      21.111  31.508  27.442  0.00  0.00    -0.184 F 
HETATM    7  F   UNN     0      21.184  33.671  27.811  0.00  0.00    -0.184 F 
ENDBRANCH   4   5
ENDBRANCH   3   4
BRANCH   3   8
HETATM    8  C   UNN     0      19.581  31.704  31.608  0.00  0.00     0.368 C 
HETATM    9 Cl   UNN     0      19.039  30.097  32.125  0.00  0.00    -0.080 Cl
HETATM   10  F   UNN     0      20.897  31.816  31.858  0.00  0.00    -0.223 F 
ENDBRANCH   3   8
TORSDOF 3
ENDMDL
MODEL 2
REMARK VINA RESULT:      -4.5      2.259      3.642
REMARK  3 active torsions:
REMARK  status: ('A' for Active; 'I' for Inactive)
REMARK    1  A    between atoms: O_7  and  C_8 
REMARK    2  A    between atoms: O_7  and  C_10 
REMARK    3  A    between atoms: C_8  and  C_9 
ROOT
HETATM    1  F   UNN     0      18.573  32.803  29.601  0.00  0.00    -0.171 F 
HETATM    2  F   UNN     0      17.618  31.124  28.644  0.00  0.00    -0.171 F 
HETATM    3  C   UNN     0      18.777  31.546  29.169  0.00  0.00     0.402 C 
ENDROOT
BRANCH   3   4
HETATM    4  O   UNN     0      19.202  30.745  30.275  0.00  0.00    -0.260 OA
BRANCH   4   5
HETATM    5  C   UNN     0      19.548  31.477  31.458  0.00  0.00     0.504 C 
HETATM    6  F   UNN     0      20.801  31.970  31.317  0.00  0.00    -0.184 F 
HETATM    7  F   UNN     0      19.516  30.698  32.562  0.00  0.00    -0.184 F 
ENDBRANCH   4   5
ENDBRANCH   3   4
BRANCH   3   8
HETATM    8  C   UNN     0      19.864  31.543  28.134  0.00  0.00     0.368 C 
HETATM    9 Cl   UNN     0      20.850  33.016  28.135  0.00  0.00    -0.080 Cl
HETATM   10  F   UNN     0      20.668  30.487  28.355  0.00  0.00    -0.223 F 
ENDBRANCH   3   8
TORSDOF 3
ENDMDL
MODEL 3
REMARK VINA RESULT:      -4.3      1.833      2.967
REMARK  3 active torsions:
REMARK  status: ('A' for Active; 'I' for Inactive)
REMARK    1  A    between atoms: O_7  and  C_8 
REMARK    2  A    between atoms: O_7  and  C_10 
REMARK    3  A    between atoms: C_8  and  C_9 
ROOT
HETATM    1  F   UNN     0      20.433  33.250  28.101  0.00  0.00    -0.171 F 
HETATM    2  F   UNN     0      21.572  31.538  28.751  0.00  0.00    -0.171 F 
HETATM    3  C   UNN     0      20.333  31.956  28.454  0.00  0.00     0.402 C 
ENDROOT
BRANCH   3   4
HETATM    4  O   UNN     0      19.754  31.229  27.368  0.00  0.00    -0.260 OA
BRANCH   4   5
HETATM    5  C   UNN     0      20.693  30.655  26.451  0.00  0.00     0.504 C 
HETATM    6  F   UNN     0      20.688  31.378  25.306  0.00  0.00    -0.184 F 
HETATM    7  F   UNN     0      20.387  29.373  26.149  0.00  0.00    -0.184 F 
ENDBRANCH   4   5
ENDBRANCH   3   4
BRANCH   3   8
HETATM    8  C   UNN     0      19.428  31.833  29.646  0.00  0.00     0.368 C 
HETATM    9 Cl   UNN     0      20.286  31.873  31.196  0.00  0.00    -0.080 Cl
HETATM   10  F   UNN     0      18.539  32.842  29.619  0.00  0.00    -0.223 F 
ENDBRANCH   3   8
TORSDOF 3
ENDMDL
MODEL 4
REMARK VINA RESULT:      -4.2      1.402      2.176
REMARK  3 active torsions:
REMARK  status: ('A' for Active; 'I' for Inactive)
REMARK    1  A    between atoms: O_7  and  C_8 
REMARK    2  A    between atoms: O_7  and  C_10 
REMARK    3  A    between atoms: C_8  and  C_9 
ROOT
HETATM    1  F   UNN     0      18.332  33.106  29.986  0.00  0.00    -0.171 F 
HETATM    2  F   UNN     0      20.099  32.177  30.802  0.00  0.00    -0.171 F 
HETATM    3  C   UNN     0      19.280  32.184  29.740  0.00  0.00     0.402 C 
ENDROOT
BRANCH   3   4
HETATM    4  O   UNN     0      19.955  32.533  28.529  0.00  0.00    -0.260 OA
BRANCH   4   5
HETATM    5  C   UNN     0      20.498  31.429  27.795  0.00  0.00     0.504 C 
HETATM    6  F   UNN     0      21.737  31.154  28.267  0.00  0.00    -0.184 F 
HETATM    7  F   UNN     0      20.593  31.697  26.474  0.00  0.00    -0.184 F 
ENDBRANCH   4   5
ENDBRANCH   3   4
BRANCH   3   8
HETATM    8  C   UNN     0      18.634  30.841  29.556  0.00  0.00     0.368 C 
HETATM    9 Cl   UNN     0      18.580  29.870  31.038  0.00  0.00    -0.080 Cl
HETATM   10  F   UNN     0      17.377  31.024  29.114  0.00  0.00    -0.223 F 
ENDBRANCH   3   8
TORSDOF 3
ENDMDL
MODEL 5
REMARK VINA RESULT:      -4.1      2.353      3.507
REMARK  3 active torsions:
REMARK  status: ('A' for Active; 'I' for Inactive)
REMARK    1  A    between atoms: O_7  and  C_8 
REMARK    2  A    between atoms: O_7  and  C_10 
REMARK    3  A    between atoms: C_8  and  C_9 
ROOT
HETATM    1  F   UNN     0      19.412  31.035  30.541  0.00  0.00    -0.171 F 
HETATM    2  F   UNN     0      18.679  32.956  29.891  0.00  0.00    -0.171 F 
HETATM    3  C   UNN     0      19.284  31.837  29.468  0.00  0.00     0.402 C 
ENDROOT
BRANCH   3   4
HETATM    4  O   UNN     0      18.527  31.148  28.470  0.00  0.00    -0.260 OA
BRANCH   4   5
HETATM    5  C   UNN     0      17.298  30.572  28.928  0.00  0.00     0.504 C 
HETATM    6  F   UNN     0      16.945  29.567  28.091  0.00  0.00    -0.184 F 
HETATM    7  F   UNN     0      16.294  31.478  28.956  0.00  0.00    -0.184 F 
ENDBRANCH   4   5
ENDBRANCH   3   4
BRANCH   3   8
HETATM    8  C   UNN     0      20.643  32.144  28.908  0.00  0.00     0.368 C 
HETATM    9 Cl   UNN     0      21.317  30.834  27.922  0.00  0.00    -0.080 Cl
HETATM   10  F   UNN     0      20.558  33.252  28.152  0.00  0.00    -0.223 F 
ENDBRANCH   3   8
TORSDOF 3
ENDMDL
MODEL 6
REMARK VINA RESULT:      -4.1      2.036      3.860
REMARK  3 active torsions:
REMARK  status: ('A' for Active; 'I' for Inactive)
REMARK    1  A    between atoms: O_7  and  C_8 
REMARK    2  A    between atoms: O_7  and  C_10 
REMARK    3  A    between atoms: C_8  and  C_9 
ROOT
HETATM    1  F   UNN     0      21.860  30.802  28.012  0.00  0.00    -0.171 F 
HETATM    2  F   UNN     0      20.603  32.510  27.622  0.00  0.00    -0.171 F 
HETATM    3  C   UNN     0      20.581  31.219  27.984  0.00  0.00     0.402 C 
ENDROOT
BRANCH   3   4
HETATM    4  O   UNN     0      20.007  31.022  29.278  0.00  0.00    -0.260 OA
BRANCH   4   5
HETATM    5  C   UNN     0      19.984  32.183  30.117  0.00  0.00     0.504 C 
HETATM    6  F   UNN     0      20.465  31.851  31.339  0.00  0.00    -0.184 F 
HETATM    7  F   UNN     0      18.733  32.673  30.269  0.00  0.00    -0.184 F 
ENDBRANCH   4   5
ENDBRANCH   3   4
BRANCH   3   8
HETATM    8  C   UNN     0      19.810  30.400  26.990  0.00  0.00     0.368 C 
HETATM    9 Cl   UNN     0      18.099  30.203  27.407  0.00  0.00    -0.080 Cl
HETATM   10  F   UNN     0      19.894  30.992  25.785  0.00  0.00    -0.223 F 
ENDBRANCH   3   8
TORSDOF 3
ENDMDL
MODEL 7
REMARK VINA RESULT:      -4.0     41.253     41.938
REMARK  3 active torsions:
REMARK  status: ('A' for Active; 'I' for Inactive)
REMARK    1  A    between atoms: O_7  and  C_8 
REMARK    2  A    between atoms: O_7  and  C_10 
REMARK    3  A    between atoms: C_8  and  C_9 
ROOT
HETATM    1  F   UNN     0      17.852   8.337  -4.157  0.00  0.00    -0.171 F 
HETATM    2  F   UNN     0      19.710   9.022  -3.301  0.00  0.00    -0.171 F 
HETATM    3  C   UNN     0      19.185   8.157  -4.182  0.00  0.00     0.402 C 
ENDROOT
BRANCH   3   4
HETATM    4  O   UNN     0      19.651   8.379  -5.515  0.00  0.00    -0.260 OA
BRANCH   4   5
HETATM    5  C   UNN     0      19.352   9.672  -6.056  0.00  0.00     0.504 C 
HETATM    6  F   UNN     0      19.273   9.575  -7.405  0.00  0.00    -0.184 F 
HETATM    7  F   UNN     0      20.302  10.583  -5.747  0.00  0.00    -0.184 F 
ENDBRANCH   4   5
ENDBRANCH   3   4
BRANCH   3   8
HETATM    8  C   UNN     0      19.505   6.742  -3.795  0.00  0.00     0.368 C 
HETATM    9 Cl   UNN     0      20.486   5.882  -4.995  0.00  0.00    -0.080 Cl
HETATM   10  F   UNN     0      20.169   6.754  -2.625  0.00  0.00    -0.223 F 
ENDBRANCH   3   8
TORSDOF 3
ENDMDL
MODEL 8
REMARK VINA RESULT:      -4.0      2.878      3.869
REMARK  3 active torsions:
REMARK  status: ('A' for Active; 'I' for Inactive)
REMARK    1  A    between atoms: O_7  and  C_8 
REMARK    2  A    between atoms: O_7  and  C_10 
REMARK    3  A    between atoms: C_8  and  C_9 
ROOT
HETATM    1  F   UNN     0      18.632  30.621  27.257  0.00  0.00    -0.171 F 
HETATM    2  F   UNN     0      19.187  28.751  28.178  0.00  0.00    -0.171 F 
HETATM    3  C   UNN     0      19.620  29.994  27.921  0.00  0.00     0.402 C 
ENDROOT
BRANCH   3   4
HETATM    4  O   UNN     0      19.911  30.732  29.110  0.00  0.00    -0.260 OA
BRANCH   4   5
HETATM    5  C   UNN     0      19.299  32.025  29.189  0.00  0.00     0.504 C 
HETATM    6  F   UNN     0      20.028  32.901  28.457  0.00  0.00    -0.184 F 
HETATM    7  F   UNN     0      19.237  32.479  30.461  0.00  0.00    -0.184 F 
ENDBRANCH   4   5
ENDBRANCH   3   4
BRANCH   3   8
HETATM    8  C   UNN     0      20.854  29.963  27.066  0.00  0.00     0.368 C 
HETATM    9 Cl   UNN     0      20.697  30.881  25.558  0.00  0.00    -0.080 Cl
HETATM   10  F   UNN     0      21.881  30.468  27.772  0.00  0.00    -0.223 F 
ENDBRANCH   3   8
TORSDOF 3
ENDMDL
MODEL 9
REMARK VINA RESULT:      -4.0     47.565     48.575
REMARK  3 active torsions:
REMARK  status: ('A' for Active; 'I' for Inactive)
REMARK    1  A    between atoms: O_7  and  C_8 
REMARK    2  A    between atoms: O_7  and  C_10 
REMARK    3  A    between atoms: C_8  and  C_9 
ROOT
HETATM    1  F   UNN     0      41.574  23.076 -13.729  0.00  0.00    -0.171 F 
HETATM    2  F   UNN     0      41.805  20.992 -13.222  0.00  0.00    -0.171 F 
HETATM    3  C   UNN     0      41.219  22.135 -12.835  0.00  0.00     0.402 C 
ENDROOT
BRANCH   3   4
HETATM    4  O   UNN     0      39.793  22.040 -12.814  0.00  0.00    -0.260 OA
BRANCH   4   5
HETATM    5  C   UNN     0      39.171  21.927 -14.100  0.00  0.00     0.504 C 
HETATM    6  F   UNN     0      38.533  23.089 -14.382  0.00  0.00    -0.184 F 
HETATM    7  F   UNN     0      38.267  20.923 -14.139  0.00  0.00    -0.184 F 
ENDBRANCH   4   5
ENDBRANCH   3   4
BRANCH   3   8
HETATM    8  C   UNN     0      41.690  22.541 -11.469  0.00  0.00     0.368 C 
HETATM    9 Cl   UNN     0      43.351  22.036 -11.112  0.00  0.00    -0.080 Cl
HETATM   10  F   UNN     0      41.616  23.880 -11.367  0.00  0.00    -0.223 F 
ENDBRANCH   3   8
TORSDOF 3
ENDMDL
