MODEL 1
REMARK VINA RESULT:      -7.8      0.000      0.000
REMARK  5 active torsions:
REMARK  status: ('A' for Active; 'I' for Inactive)
REMARK    1  A    between atoms: O_3  and  C_17 
REMARK       I    between atoms: N_7  and  C_19 
REMARK    2  A    between atoms: N_7  and  C_20 
REMARK    3  A    between atoms: C_10  and  C_14 
REMARK    4  A    between atoms: C_11  and  C_17 
REMARK    5  A    between atoms: C_18  and  C_19 
ROOT
HETATM    1 Cl   UNN     0      41.616  25.160  25.688  0.00  0.00    -0.083 Cl
HETATM    2 Cl   UNN     0      46.144  27.817  25.749  0.00  0.00    -0.084 Cl
HETATM    3  N   UNN     0      43.380  27.190  21.648  0.00  0.00    -0.349 N 
HETATM    4  C   UNN     0      42.636  26.349  23.436  0.00  0.00     0.025 A 
HETATM    5  C   UNN     0      43.637  27.047  22.875  0.00  0.00     0.047 A 
HETATM    6  C   UNN     0      41.759  26.058  22.440  0.00  0.00     0.012 A 
HETATM    7  C   UNN     0      42.274  26.654  21.338  0.00  0.00     0.118 A 
HETATM    8  C   UNN     0      42.746  26.083  24.754  0.00  0.00     0.049 A 
HETATM    9  C   UNN     0      44.707  27.512  23.528  0.00  0.00     0.054 A 
HETATM   10  C   UNN     0      43.816  26.540  25.436  0.00  0.00     0.048 A 
HETATM   11  C   UNN     0      44.787  27.250  24.840  0.00  0.00     0.037 A 
HETATM   12  H   UNN     0      43.992  27.719  20.985  0.00  0.00     0.166 HD
ENDROOT
BRANCH   6  13
HETATM   13  C   UNN     0      40.633  25.336  22.603  0.00  0.00     0.020 C 
HETATM   14  C   UNN     0      39.376  25.764  22.816  0.00  0.00     0.075 C 
BRANCH  14  15
HETATM   15  C   UNN     0      38.303  24.941  22.983  0.00  0.00     0.245 C 
HETATM   16  O   UNN     0      37.465  25.060  23.843  0.00  0.00    -0.268 OA
HETATM   17  N   UNN     0      38.288  23.949  22.044  0.00  0.00    -0.324 N 
HETATM   18  H   UNN     0      39.036  23.956  21.364  0.00  0.00     0.169 HD
BRANCH  17  19
HETATM   19  C   UNN     0      37.458  22.914  21.801  0.00  0.00     0.035 A 
HETATM   20  C   UNN     0      36.384  23.206  21.040  0.00  0.00     0.029 A 
HETATM   21  C   UNN     0      35.477  22.270  20.721  0.00  0.00     0.002 A 
HETATM   22  C   UNN     0      35.630  21.013  21.161  0.00  0.00     0.000 A 
HETATM   23  C   UNN     0      36.693  20.707  21.918  0.00  0.00     0.002 A 
HETATM   24  C   UNN     0      37.597  21.648  22.234  0.00  0.00     0.029 A 
ENDBRANCH  17  19
ENDBRANCH  14  15
ENDBRANCH   6  13
BRANCH   7  25
HETATM   25  C   UNN     0      41.823  26.820  20.062  0.00  0.00     0.194 C 
HETATM   26  O   UNN     0      42.349  26.396  19.059  0.00  0.00    -0.645 OA
BRANCH  25  27
HETATM   27  O   UNN     0      40.641  27.457  19.847  0.00  0.00    -0.772 OA
HETATM   28  H   UNN     0      40.003  27.143  20.507  0.00  0.00     0.167 HD
ENDBRANCH  25  27
ENDBRANCH   7  25
TORSDOF 5
ENDMDL
MODEL 2
REMARK VINA RESULT:      -7.2      3.225      8.154
REMARK  5 active torsions:
REMARK  status: ('A' for Active; 'I' for Inactive)
REMARK    1  A    between atoms: O_3  and  C_17 
REMARK       I    between atoms: N_7  and  C_19 
REMARK    2  A    between atoms: N_7  and  C_20 
REMARK    3  A    between atoms: C_10  and  C_14 
REMARK    4  A    between atoms: C_11  and  C_17 
REMARK    5  A    between atoms: C_18  and  C_19 
ROOT
HETATM    1 Cl   UNN     0      41.550  25.522  26.126  0.00  0.00    -0.083 Cl
HETATM    2 Cl   UNN     0      36.362  25.754  25.362  0.00  0.00    -0.084 Cl
HETATM    3  N   UNN     0      39.710  26.669  21.785  0.00  0.00    -0.349 N 
HETATM    4  C   UNN     0      40.466  26.137  23.683  0.00  0.00     0.025 A 
HETATM    5  C   UNN     0      39.359  26.359  22.956  0.00  0.00     0.047 A 
HETATM    6  C   UNN     0      41.524  26.361  22.859  0.00  0.00     0.012 A 
HETATM    7  C   UNN     0      40.972  26.659  21.658  0.00  0.00     0.118 A 
HETATM    8  C   UNN     0      40.286  25.806  24.979  0.00  0.00     0.049 A 
HETATM    9  C   UNN     0      38.107  26.253  23.414  0.00  0.00     0.054 A 
HETATM   10  C   UNN     0      39.033  25.693  25.466  0.00  0.00     0.048 A 
HETATM   11  C   UNN     0      37.951  25.907  24.700  0.00  0.00     0.037 A 
HETATM   12  H   UNN     0      39.036  26.870  21.010  0.00  0.00     0.166 HD
ENDROOT
BRANCH   6  13
HETATM   13  C   UNN     0      42.814  26.270  23.235  0.00  0.00     0.020 C 
HETATM   14  C   UNN     0      43.822  27.135  23.020  0.00  0.00     0.075 C 
BRANCH  14  15
HETATM   15  C   UNN     0      45.104  26.937  23.434  0.00  0.00     0.245 C 
HETATM   16  O   UNN     0      45.684  25.880  23.413  0.00  0.00    -0.268 OA
HETATM   17  N   UNN     0      45.665  28.099  23.883  0.00  0.00    -0.324 N 
HETATM   18  H   UNN     0      45.088  28.927  23.842  0.00  0.00     0.169 HD
BRANCH  17  19
HETATM   19  C   UNN     0      46.877  28.411  24.387  0.00  0.00     0.035 A 
HETATM   20  C   UNN     0      46.860  29.230  25.457  0.00  0.00     0.029 A 
HETATM   21  C   UNN     0      47.994  29.620  26.059  0.00  0.00     0.002 A 
HETATM   22  C   UNN     0      49.177  29.193  25.595  0.00  0.00     0.000 A 
HETATM   23  C   UNN     0      49.211  28.377  24.532  0.00  0.00     0.002 A 
HETATM   24  C   UNN     0      48.072  27.991  23.935  0.00  0.00     0.029 A 
ENDBRANCH  17  19
ENDBRANCH  14  15
ENDBRANCH   6  13
BRANCH   7  25
HETATM   25  C   UNN     0      41.488  26.875  20.416  0.00  0.00     0.194 C 
HETATM   26  O   UNN     0      42.574  26.515  20.023  0.00  0.00    -0.645 OA
BRANCH  25  27
HETATM   27  O   UNN     0      40.729  27.489  19.471  0.00  0.00    -0.772 OA
HETATM   28  H   UNN     0      40.608  28.415  19.733  0.00  0.00     0.167 HD
ENDBRANCH  25  27
ENDBRANCH   7  25
TORSDOF 5
ENDMDL
MODEL 3
REMARK VINA RESULT:      -7.1     51.869     54.732
REMARK  5 active torsions:
REMARK  status: ('A' for Active; 'I' for Inactive)
REMARK    1  A    between atoms: O_3  and  C_17 
REMARK       I    between atoms: N_7  and  C_19 
REMARK    2  A    between atoms: N_7  and  C_20 
REMARK    3  A    between atoms: C_10  and  C_14 
REMARK    4  A    between atoms: C_11  and  C_17 
REMARK    5  A    between atoms: C_18  and  C_19 
ROOT
HETATM    1 Cl   UNN     0      -9.785   5.422  38.151  0.00  0.00    -0.083 Cl
HETATM    2 Cl   UNN     0      -6.596   4.814  42.278  0.00  0.00    -0.084 Cl
HETATM    3  N   UNN     0      -5.052   4.538  37.547  0.00  0.00    -0.349 N 
HETATM    4  C   UNN     0      -7.099   4.951  37.857  0.00  0.00     0.025 A 
HETATM    5  C   UNN     0      -5.918   4.703  38.448  0.00  0.00     0.047 A 
HETATM    6  C   UNN     0      -6.881   4.899  36.517  0.00  0.00     0.012 A 
HETATM    7  C   UNN     0      -5.552   4.670  36.389  0.00  0.00     0.118 A 
HETATM    8  C   UNN     0      -8.158   5.139  38.672  0.00  0.00     0.049 A 
HETATM    9  C   UNN     0      -5.717   4.656  39.770  0.00  0.00     0.054 A 
HETATM   10  C   UNN     0      -7.982   5.096  40.008  0.00  0.00     0.048 A 
HETATM   11  C   UNN     0      -6.780   4.863  40.560  0.00  0.00     0.037 A 
HETATM   12  H   UNN     0      -4.040   4.354  37.740  0.00  0.00     0.166 HD
ENDROOT
BRANCH   6  13
HETATM   13  C   UNN     0      -7.838   5.065  35.583  0.00  0.00     0.020 C 
HETATM   14  C   UNN     0      -8.196   4.241  34.581  0.00  0.00     0.075 C 
BRANCH  14  15
HETATM   15  C   UNN     0      -9.176   4.515  33.676  0.00  0.00     0.245 C 
HETATM   16  O   UNN     0      -9.514   5.622  33.334  0.00  0.00    -0.268 OA
HETATM   17  N   UNN     0      -9.738   3.369  33.192  0.00  0.00    -0.324 N 
HETATM   18  H   UNN     0      -9.366   2.497  33.541  0.00  0.00     0.169 HD
BRANCH  17  19
HETATM   19  C   UNN     0     -10.723   3.121  32.304  0.00  0.00     0.035 A 
HETATM   20  C   UNN     0     -10.444   3.455  31.028  0.00  0.00     0.029 A 
HETATM   21  C   UNN     0     -11.334   3.263  30.042  0.00  0.00     0.002 A 
HETATM   22  C   UNN     0     -12.531   2.728  30.319  0.00  0.00     0.000 A 
HETATM   23  C   UNN     0     -12.825   2.390  31.582  0.00  0.00     0.002 A 
HETATM   24  C   UNN     0     -11.929   2.585  32.564  0.00  0.00     0.029 A 
ENDBRANCH  17  19
ENDBRANCH  14  15
ENDBRANCH   6  13
BRANCH   7  25
HETATM   25  C   UNN     0      -4.706   4.618  35.321  0.00  0.00     0.194 C 
HETATM   26  O   UNN     0      -4.768   5.310  34.330  0.00  0.00    -0.645 OA
BRANCH  25  27
HETATM   27  O   UNN     0      -3.639   3.777  35.350  0.00  0.00    -0.772 OA
HETATM   28  H   UNN     0      -3.928   2.909  35.027  0.00  0.00     0.167 HD
ENDBRANCH  25  27
ENDBRANCH   7  25
TORSDOF 5
ENDMDL
MODEL 4
REMARK VINA RESULT:      -7.0     49.813     53.069
REMARK  5 active torsions:
REMARK  status: ('A' for Active; 'I' for Inactive)
REMARK    1  A    between atoms: O_3  and  C_17 
REMARK       I    between atoms: N_7  and  C_19 
REMARK    2  A    between atoms: N_7  and  C_20 
REMARK    3  A    between atoms: C_10  and  C_14 
REMARK    4  A    between atoms: C_11  and  C_17 
REMARK    5  A    between atoms: C_18  and  C_19 
ROOT
HETATM    1 Cl   UNN     0      -8.738   5.723  38.686  0.00  0.00    -0.083 Cl
HETATM    2 Cl   UNN     0     -11.811   3.850  34.863  0.00  0.00    -0.084 Cl
HETATM    3  N   UNN     0      -6.886   4.453  34.385  0.00  0.00    -0.349 N 
HETATM    4  C   UNN     0      -7.731   4.965  36.251  0.00  0.00     0.025 A 
HETATM    5  C   UNN     0      -7.978   4.503  35.014  0.00  0.00     0.047 A 
HETATM    6  C   UNN     0      -6.396   5.214  36.313  0.00  0.00     0.012 A 
HETATM    7  C   UNN     0      -5.915   4.831  35.106  0.00  0.00     0.118 A 
HETATM    8  C   UNN     0      -8.793   5.103  37.071  0.00  0.00     0.049 A 
HETATM    9  C   UNN     0      -9.184   4.152  34.553  0.00  0.00     0.054 A 
HETATM   10  C   UNN     0     -10.020   4.756  36.630  0.00  0.00     0.048 A 
HETATM   11  C   UNN     0     -10.222   4.282  35.390  0.00  0.00     0.037 A 
HETATM   12  H   UNN     0      -6.797   4.104  33.402  0.00  0.00     0.166 HD
ENDROOT
BRANCH   6  13
HETATM   13  C   UNN     0      -5.766   5.720  37.390  0.00  0.00     0.020 C 
HETATM   14  C   UNN     0      -5.295   5.079  38.475  0.00  0.00     0.075 C 
BRANCH  14  15
HETATM   15  C   UNN     0      -4.681   5.695  39.524  0.00  0.00     0.245 C 
HETATM   16  O   UNN     0      -4.645   5.271  40.652  0.00  0.00    -0.268 OA
HETATM   17  N   UNN     0      -4.099   6.869  39.137  0.00  0.00    -0.324 N 
HETATM   18  H   UNN     0      -4.183   7.119  38.162  0.00  0.00     0.169 HD
BRANCH  17  19
HETATM   19  C   UNN     0      -3.398   7.817  39.793  0.00  0.00     0.035 A 
HETATM   20  C   UNN     0      -4.141   8.757  40.410  0.00  0.00     0.029 A 
HETATM   21  C   UNN     0      -3.572   9.759  41.099  0.00  0.00     0.002 A 
HETATM   22  C   UNN     0      -2.237   9.838  41.182  0.00  0.00     0.000 A 
HETATM   23  C   UNN     0      -1.483   8.911  40.575  0.00  0.00     0.002 A 
HETATM   24  C   UNN     0      -2.059   7.911  39.887  0.00  0.00     0.029 A 
ENDBRANCH  17  19
ENDBRANCH  14  15
ENDBRANCH   6  13
BRANCH   7  25
HETATM   25  C   UNN     0      -4.658   4.731  34.585  0.00  0.00     0.194 C 
HETATM   26  O   UNN     0      -4.204   5.400  33.686  0.00  0.00    -0.645 OA
BRANCH  25  27
HETATM   27  O   UNN     0      -3.772   3.860  35.136  0.00  0.00    -0.772 OA
HETATM   28  H   UNN     0      -3.501   4.209  36.000  0.00  0.00     0.167 HD
ENDBRANCH  25  27
ENDBRANCH   7  25
TORSDOF 5
ENDMDL
MODEL 5
REMARK VINA RESULT:      -6.8      3.343      7.672
REMARK  5 active torsions:
REMARK  status: ('A' for Active; 'I' for Inactive)
REMARK    1  A    between atoms: O_3  and  C_17 
REMARK       I    between atoms: N_7  and  C_19 
REMARK    2  A    between atoms: N_7  and  C_20 
REMARK    3  A    between atoms: C_10  and  C_14 
REMARK    4  A    between atoms: C_11  and  C_17 
REMARK    5  A    between atoms: C_18  and  C_19 
ROOT
HETATM    1 Cl   UNN     0      42.949  25.832  26.006  0.00  0.00    -0.083 Cl
HETATM    2 Cl   UNN     0      37.711  25.498  26.132  0.00  0.00    -0.084 Cl
HETATM    3  N   UNN     0      40.294  26.641  22.026  0.00  0.00    -0.349 N 
HETATM    4  C   UNN     0      41.411  26.252  23.775  0.00  0.00     0.025 A 
HETATM    5  C   UNN     0      40.180  26.334  23.244  0.00  0.00     0.047 A 
HETATM    6  C   UNN     0      42.285  26.558  22.780  0.00  0.00     0.012 A 
HETATM    7  C   UNN     0      41.510  26.759  21.687  0.00  0.00     0.118 A 
HETATM    8  C   UNN     0      41.486  25.946  25.087  0.00  0.00     0.049 A 
HETATM    9  C   UNN     0      39.041  26.113  23.910  0.00  0.00     0.054 A 
HETATM   10  C   UNN     0      40.353  25.719  25.781  0.00  0.00     0.048 A 
HETATM   11  C   UNN     0      39.141  25.794  25.208  0.00  0.00     0.037 A 
HETATM   12  H   UNN     0      39.482  26.746  21.375  0.00  0.00     0.166 HD
ENDROOT
BRANCH   6  13
HETATM   13  C   UNN     0      43.622  26.614  22.932  0.00  0.00     0.020 C 
HETATM   14  C   UNN     0      44.386  27.644  23.339  0.00  0.00     0.075 C 
BRANCH  14  15
HETATM   15  C   UNN     0      45.743  27.598  23.444  0.00  0.00     0.245 C 
HETATM   16  O   UNN     0      46.483  28.536  23.274  0.00  0.00    -0.268 OA
HETATM   17  N   UNN     0      46.172  26.344  23.773  0.00  0.00    -0.324 N 
HETATM   18  H   UNN     0      45.460  25.639  23.903  0.00  0.00     0.169 HD
BRANCH  17  19
HETATM   19  C   UNN     0      47.391  25.805  23.979  0.00  0.00     0.035 A 
HETATM   20  C   UNN     0      47.753  25.681  25.272  0.00  0.00     0.029 A 
HETATM   21  C   UNN     0      48.939  25.160  25.621  0.00  0.00     0.002 A 
HETATM   22  C   UNN     0      49.794  24.751  24.673  0.00  0.00     0.000 A 
HETATM   23  C   UNN     0      49.450  24.867  23.382  0.00  0.00     0.002 A 
HETATM   24  C   UNN     0      48.261  25.389  23.041  0.00  0.00     0.029 A 
ENDBRANCH  17  19
ENDBRANCH  14  15
ENDBRANCH   6  13
BRANCH   7  25
HETATM   25  C   UNN     0      41.785  26.988  20.371  0.00  0.00     0.194 C 
HETATM   26  O   UNN     0      42.849  26.810  19.824  0.00  0.00    -0.645 OA
BRANCH  25  27
HETATM   27  O   UNN     0      40.789  27.389  19.538  0.00  0.00    -0.772 OA
HETATM   28  H   UNN     0      41.092  28.178  19.061  0.00  0.00     0.167 HD
ENDBRANCH  25  27
ENDBRANCH   7  25
TORSDOF 5
ENDMDL
MODEL 6
REMARK VINA RESULT:      -6.7     52.219     53.755
REMARK  5 active torsions:
REMARK  status: ('A' for Active; 'I' for Inactive)
REMARK    1  A    between atoms: O_3  and  C_17 
REMARK       I    between atoms: N_7  and  C_19 
REMARK    2  A    between atoms: N_7  and  C_20 
REMARK    3  A    between atoms: C_10  and  C_14 
REMARK    4  A    between atoms: C_11  and  C_17 
REMARK    5  A    between atoms: C_18  and  C_19 
ROOT
HETATM    1 Cl   UNN     0       1.163  -6.913  41.951  0.00  0.00    -0.083 Cl
HETATM    2 Cl   UNN     0      -2.860  -6.607  38.591  0.00  0.00    -0.084 Cl
HETATM    3  N   UNN     0      -1.387  -2.812  41.468  0.00  0.00    -0.349 N 
HETATM    4  C   UNN     0      -0.287  -4.608  41.624  0.00  0.00     0.025 A 
HETATM    5  C   UNN     0      -1.318  -3.990  41.023  0.00  0.00     0.047 A 
HETATM    6  C   UNN     0       0.253  -3.710  42.490  0.00  0.00     0.012 A 
HETATM    7  C   UNN     0      -0.471  -2.578  42.313  0.00  0.00     0.118 A 
HETATM    8  C   UNN     0      -0.067  -5.894  41.282  0.00  0.00     0.049 A 
HETATM    9  C   UNN     0      -2.115  -4.547  40.105  0.00  0.00     0.054 A 
HETATM   10  C   UNN     0      -0.858  -6.479  40.359  0.00  0.00     0.048 A 
HETATM   11  C   UNN     0      -1.868  -5.821  39.769  0.00  0.00     0.037 A 
HETATM   12  H   UNN     0      -2.092  -2.110  41.145  0.00  0.00     0.166 HD
ENDROOT
BRANCH   6  13
HETATM   13  C   UNN     0       1.293  -3.969  43.304  0.00  0.00     0.020 C 
HETATM   14  C   UNN     0       2.538  -3.459  43.276  0.00  0.00     0.075 C 
BRANCH  14  15
HETATM   15  C   UNN     0       3.528  -3.804  44.146  0.00  0.00     0.245 C 
HETATM   16  O   UNN     0       4.166  -3.027  44.814  0.00  0.00    -0.268 OA
HETATM   17  N   UNN     0       3.715  -5.156  44.174  0.00  0.00    -0.324 N 
HETATM   18  H   UNN     0       3.114  -5.711  43.581  0.00  0.00     0.169 HD
BRANCH  17  19
HETATM   19  C   UNN     0       4.557  -5.963  44.852  0.00  0.00     0.035 A 
HETATM   20  C   UNN     0       5.615  -6.411  44.148  0.00  0.00     0.029 A 
HETATM   21  C   UNN     0       6.532  -7.221  44.699  0.00  0.00     0.002 A 
HETATM   22  C   UNN     0       6.404  -7.601  45.979  0.00  0.00     0.000 A 
HETATM   23  C   UNN     0       5.358  -7.165  46.693  0.00  0.00     0.002 A 
HETATM   24  C   UNN     0       4.444  -6.354  46.135  0.00  0.00     0.029 A 
ENDBRANCH  17  19
ENDBRANCH  14  15
ENDBRANCH   6  13
BRANCH   7  25
HETATM   25  C   UNN     0      -0.363  -1.309  42.799  0.00  0.00     0.194 C 
HETATM   26  O   UNN     0       0.600  -0.585  42.692  0.00  0.00    -0.645 OA
BRANCH  25  27
HETATM   27  O   UNN     0      -1.431  -0.732  43.410  0.00  0.00    -0.772 OA
HETATM   28  H   UNN     0      -2.039  -0.416  42.723  0.00  0.00     0.167 HD
ENDBRANCH  25  27
ENDBRANCH   7  25
TORSDOF 5
ENDMDL
MODEL 7
REMARK VINA RESULT:      -6.6     12.627     13.705
REMARK  5 active torsions:
REMARK  status: ('A' for Active; 'I' for Inactive)
REMARK    1  A    between atoms: O_3  and  C_17 
REMARK       I    between atoms: N_7  and  C_19 
REMARK    2  A    between atoms: N_7  and  C_20 
REMARK    3  A    between atoms: C_10  and  C_14 
REMARK    4  A    between atoms: C_11  and  C_17 
REMARK    5  A    between atoms: C_18  and  C_19 
ROOT
HETATM    1 Cl   UNN     0      31.952  37.475  19.372  0.00  0.00    -0.083 Cl
HETATM    2 Cl   UNN     0      36.821  37.938  21.280  0.00  0.00    -0.084 Cl
HETATM    3  N   UNN     0      34.168  33.725  21.510  0.00  0.00    -0.349 N 
HETATM    4  C   UNN     0      33.254  35.375  20.561  0.00  0.00     0.025 A 
HETATM    5  C   UNN     0      34.353  34.932  21.195  0.00  0.00     0.047 A 
HETATM    6  C   UNN     0      32.375  34.339  20.538  0.00  0.00     0.012 A 
HETATM    7  C   UNN     0      33.034  33.311  21.125  0.00  0.00     0.118 A 
HETATM    8  C   UNN     0      33.262  36.663  20.160  0.00  0.00     0.049 A 
HETATM    9  C   UNN     0      35.448  35.662  21.430  0.00  0.00     0.054 A 
HETATM   10  C   UNN     0      34.355  37.421  20.386  0.00  0.00     0.048 A 
HETATM   11  C   UNN     0      35.441  36.934  21.008  0.00  0.00     0.037 A 
HETATM   12  H   UNN     0      34.883  33.135  21.995  0.00  0.00     0.166 HD
ENDROOT
BRANCH   6  13
HETATM   13  C   UNN     0      31.136  34.403  20.012  0.00  0.00     0.020 C 
HETATM   14  C   UNN     0      29.970  34.684  20.621  0.00  0.00     0.075 C 
BRANCH  14  15
HETATM   15  C   UNN     0      28.762  34.708  19.992  0.00  0.00     0.245 C 
HETATM   16  O   UNN     0      28.144  35.706  19.717  0.00  0.00    -0.268 OA
HETATM   17  N   UNN     0      28.328  33.445  19.705  0.00  0.00    -0.324 N 
HETATM   18  H   UNN     0      28.936  32.683  19.972  0.00  0.00     0.169 HD
BRANCH  17  19
HETATM   19  C   UNN     0      27.220  32.958  19.110  0.00  0.00     0.035 A 
HETATM   20  C   UNN     0      27.438  32.232  17.995  0.00  0.00     0.029 A 
HETATM   21  C   UNN     0      26.425  31.687  17.304  0.00  0.00     0.002 A 
HETATM   22  C   UNN     0      25.163  31.862  17.720  0.00  0.00     0.000 A 
HETATM   23  C   UNN     0      24.928  32.581  18.827  0.00  0.00     0.002 A 
HETATM   24  C   UNN     0      25.947  33.122  19.514  0.00  0.00     0.029 A 
ENDBRANCH  17  19
ENDBRANCH  14  15
ENDBRANCH   6  13
BRANCH   7  25
HETATM   25  C   UNN     0      32.742  31.992  21.309  0.00  0.00     0.194 C 
HETATM   26  O   UNN     0      32.434  31.203  20.444  0.00  0.00    -0.645 OA
BRANCH  25  27
HETATM   27  O   UNN     0      32.858  31.445  22.547  0.00  0.00    -0.772 OA
HETATM   28  H   UNN     0      33.802  31.342  22.746  0.00  0.00     0.167 HD
ENDBRANCH  25  27
ENDBRANCH   7  25
TORSDOF 5
ENDMDL
MODEL 8
REMARK VINA RESULT:      -6.6     13.634     14.699
REMARK  5 active torsions:
REMARK  status: ('A' for Active; 'I' for Inactive)
REMARK    1  A    between atoms: O_3  and  C_17 
REMARK       I    between atoms: N_7  and  C_19 
REMARK    2  A    between atoms: N_7  and  C_20 
REMARK    3  A    between atoms: C_10  and  C_14 
REMARK    4  A    between atoms: C_11  and  C_17 
REMARK    5  A    between atoms: C_18  and  C_19 
ROOT
HETATM    1 Cl   UNN     0      32.679  37.880  19.956  0.00  0.00    -0.083 Cl
HETATM    2 Cl   UNN     0      37.304  37.175  22.338  0.00  0.00    -0.084 Cl
HETATM    3  N   UNN     0      34.136  33.461  21.333  0.00  0.00    -0.349 N 
HETATM    4  C   UNN     0      33.556  35.398  20.725  0.00  0.00     0.025 A 
HETATM    5  C   UNN     0      34.507  34.666  21.330  0.00  0.00     0.047 A 
HETATM    6  C   UNN     0      32.563  34.536  20.381  0.00  0.00     0.012 A 
HETATM    7  C   UNN     0      33.013  33.316  20.764  0.00  0.00     0.118 A 
HETATM    8  C   UNN     0      33.774  36.727  20.641  0.00  0.00     0.049 A 
HETATM    9  C   UNN     0      35.649  35.154  21.826  0.00  0.00     0.054 A 
HETATM   10  C   UNN     0      34.918  37.243  21.135  0.00  0.00     0.048 A 
HETATM   11  C   UNN     0      35.852  36.474  21.717  0.00  0.00     0.037 A 
HETATM   12  H   UNN     0      34.709  32.678  21.726  0.00  0.00     0.166 HD
ENDROOT
BRANCH   6  13
HETATM   13  C   UNN     0      31.415  34.899  19.778  0.00  0.00     0.020 C 
HETATM   14  C   UNN     0      30.151  34.552  20.083  0.00  0.00     0.075 C 
BRANCH  14  15
HETATM   15  C   UNN     0      29.053  34.968  19.393  0.00  0.00     0.245 C 
HETATM   16  O   UNN     0      28.183  34.246  18.974  0.00  0.00    -0.268 OA
HETATM   17  N   UNN     0      29.055  36.324  19.230  0.00  0.00    -0.324 N 
HETATM   18  H   UNN     0      29.831  36.830  19.634  0.00  0.00     0.169 HD
BRANCH  17  19
HETATM   19  C   UNN     0      28.212  37.188  18.627  0.00  0.00     0.035 A 
HETATM   20  C   UNN     0      28.800  38.112  17.842  0.00  0.00     0.029 A 
HETATM   21  C   UNN     0      28.080  39.032  17.182  0.00  0.00     0.002 A 
HETATM   22  C   UNN     0      26.744  39.044  17.298  0.00  0.00     0.000 A 
HETATM   23  C   UNN     0      26.143  38.132  18.075  0.00  0.00     0.002 A 
HETATM   24  C   UNN     0      26.871  37.213  18.732  0.00  0.00     0.029 A 
ENDBRANCH  17  19
ENDBRANCH  14  15
ENDBRANCH   6  13
BRANCH   7  25
HETATM   25  C   UNN     0      32.538  32.048  20.605  0.00  0.00     0.194 C 
HETATM   26  O   UNN     0      32.331  31.492  19.551  0.00  0.00    -0.645 OA
BRANCH  25  27
HETATM   27  O   UNN     0      32.326  31.270  21.698  0.00  0.00    -0.772 OA
HETATM   28  H   UNN     0      31.569  31.631  22.186  0.00  0.00     0.167 HD
ENDBRANCH  25  27
ENDBRANCH   7  25
TORSDOF 5
ENDMDL
MODEL 9
REMARK VINA RESULT:      -6.1      9.937     12.143
REMARK  5 active torsions:
REMARK  status: ('A' for Active; 'I' for Inactive)
REMARK    1  A    between atoms: O_3  and  C_17 
REMARK       I    between atoms: N_7  and  C_19 
REMARK    2  A    between atoms: N_7  and  C_20 
REMARK    3  A    between atoms: C_10  and  C_14 
REMARK    4  A    between atoms: C_11  and  C_17 
REMARK    5  A    between atoms: C_18  and  C_19 
ROOT
HETATM    1 Cl   UNN     0      38.435  18.897  16.453  0.00  0.00    -0.083 Cl
HETATM    2 Cl   UNN     0      34.591  22.163  17.906  0.00  0.00    -0.084 Cl
HETATM    3  N   UNN     0      36.139  21.664  13.194  0.00  0.00    -0.349 N 
HETATM    4  C   UNN     0      37.090  20.457  14.642  0.00  0.00     0.025 A 
HETATM    5  C   UNN     0      36.155  21.397  14.427  0.00  0.00     0.047 A 
HETATM    6  C   UNN     0      37.658  20.191  13.436  0.00  0.00     0.012 A 
HETATM    7  C   UNN     0      36.981  20.965  12.554  0.00  0.00     0.118 A 
HETATM    8  C   UNN     0      37.264  20.054  15.918  0.00  0.00     0.049 A 
HETATM    9  C   UNN     0      35.378  21.936  15.373  0.00  0.00     0.054 A 
HETATM   10  C   UNN     0      36.493  20.583  16.891  0.00  0.00     0.048 A 
HETATM   11  C   UNN     0      35.557  21.509  16.631  0.00  0.00     0.037 A 
HETATM   12  H   UNN     0      35.481  22.351  12.757  0.00  0.00     0.166 HD
ENDROOT
BRANCH   6  13
HETATM   13  C   UNN     0      38.666  19.318  13.245  0.00  0.00     0.020 C 
HETATM   14  C   UNN     0      39.960  19.428  13.597  0.00  0.00     0.075 C 
BRANCH  14  15
HETATM   15  C   UNN     0      40.907  18.483  13.340  0.00  0.00     0.245 C 
HETATM   16  O   UNN     0      41.918  18.669  12.708  0.00  0.00    -0.268 OA
HETATM   17  N   UNN     0      40.571  17.281  13.895  0.00  0.00    -0.324 N 
HETATM   18  H   UNN     0      39.705  17.246  14.414  0.00  0.00     0.169 HD
BRANCH  17  19
HETATM   19  C   UNN     0      41.165  16.070  13.914  0.00  0.00     0.035 A 
HETATM   20  C   UNN     0      40.387  15.043  13.517  0.00  0.00     0.029 A 
HETATM   21  C   UNN     0      40.850  13.784  13.487  0.00  0.00     0.002 A 
HETATM   22  C   UNN     0      42.113  13.528  13.858  0.00  0.00     0.000 A 
HETATM   23  C   UNN     0      42.900  14.538  14.255  0.00  0.00     0.002 A 
HETATM   24  C   UNN     0      42.429  15.796  14.282  0.00  0.00     0.029 A 
ENDBRANCH  17  19
ENDBRANCH  14  15
ENDBRANCH   6  13
BRANCH   7  25
HETATM   25  C   UNN     0      36.999  21.077  11.196  0.00  0.00     0.194 C 
HETATM   26  O   UNN     0      36.516  20.293  10.410  0.00  0.00    -0.645 OA
BRANCH  25  27
HETATM   27  O   UNN     0      37.537  22.184  10.621  0.00  0.00    -0.772 OA
HETATM   28  H   UNN     0      38.441  21.970  10.338  0.00  0.00     0.167 HD
ENDBRANCH  25  27
ENDBRANCH   7  25
TORSDOF 5
ENDMDL
