MODEL 1
REMARK VINA RESULT:      -4.2      0.000      0.000
REMARK  3 active torsions:
REMARK  status: ('A' for Active; 'I' for Inactive)
REMARK    1  A    between atoms: O_1  and  C_10 
REMARK    2  A    between atoms: N_3  and  C_7 
REMARK       I    between atoms: N_3  and  C_9 
REMARK       I    between atoms: N_4  and  C_9 
REMARK    3  A    between atoms: C_7  and  C_10 
ROOT
HETATM    1  N   UNN     0      29.985  47.911  28.248  0.00  0.00    -0.213 N 
HETATM    2  N   UNN     0      28.899  49.672  29.028  0.00  0.00    -0.235 N 
HETATM    3  N   UNN     0      28.318  47.741  29.745  0.00  0.00    -0.235 N 
HETATM    4  HN  UNN     0      28.342  46.724  29.824  1.00  0.00     0.174 HD
HETATM    5  C   UNN     0      30.849  48.815  27.454  0.00  0.00     0.169 C 
HETATM    6  C   UNN     0      29.088  48.416  29.000  0.00  0.00     0.667 C 
HETATM    7  H   UNN     0      29.466  50.343  28.457  0.00  0.00     0.174 HD
HETATM    8  H   UNN     0      28.151  50.088  29.637  0.00  0.00     0.174 HD
HETATM    9  H   UNN     0      27.669  48.341  30.258  0.00  0.00     0.174 HD
ENDROOT
BRANCH   1  10
HETATM   10  C   UNN     0      30.144  46.438  28.213  0.00  0.00     0.250 C 
BRANCH  10  11
HETATM   11  C   UNN     0      31.611  46.100  28.427  0.00  0.00     0.158 C 
HETATM   12  O   UNN     0      32.373  45.658  27.600  0.00  0.00    -0.649 OA
BRANCH  11  13
HETATM   13  O   UNN     0      32.004  46.349  29.691  0.00  0.00    -0.775 OA
HETATM   14  H   UNN     0      32.962  46.512  29.683  0.00  0.00     0.167 HD
ENDBRANCH  11  13
ENDBRANCH  10  11
ENDBRANCH   1  10
TORSDOF 3
ENDMDL
MODEL 2
REMARK VINA RESULT:      -4.0     14.513     15.496
REMARK  3 active torsions:
REMARK  status: ('A' for Active; 'I' for Inactive)
REMARK    1  A    between atoms: O_1  and  C_10 
REMARK    2  A    between atoms: N_3  and  C_7 
REMARK       I    between atoms: N_3  and  C_9 
REMARK       I    between atoms: N_4  and  C_9 
REMARK    3  A    between atoms: C_7  and  C_10 
ROOT
HETATM    1  N   UNN     0      31.262  32.903  25.626  0.00  0.00    -0.213 N 
HETATM    2  N   UNN     0      30.764  34.683  26.838  0.00  0.00    -0.235 N 
HETATM    3  N   UNN     0      30.310  34.740  24.747  0.00  0.00    -0.235 N 
HETATM    4  HN  UNN     0      30.263  34.393  23.789  1.00  0.00     0.174 HD
HETATM    5  C   UNN     0      31.746  32.224  26.849  0.00  0.00     0.169 C 
HETATM    6  C   UNN     0      30.781  34.080  25.720  0.00  0.00     0.667 C 
HETATM    7  H   UNN     0      31.127  34.252  27.721  0.00  0.00     0.174 HD
HETATM    8  H   UNN     0      30.380  35.658  26.915  0.00  0.00     0.174 HD
HETATM    9  H   UNN     0      29.983  35.662  25.041  0.00  0.00     0.174 HD
ENDROOT
BRANCH   1  10
HETATM   10  C   UNN     0      31.302  32.251  24.296  0.00  0.00     0.250 C 
BRANCH  10  11
HETATM   11  C   UNN     0      30.400  31.026  24.325  0.00  0.00     0.158 C 
HETATM   12  O   UNN     0      29.234  31.002  24.636  0.00  0.00    -0.649 OA
BRANCH  11  13
HETATM   13  O   UNN     0      31.059  29.911  23.955  0.00  0.00    -0.775 OA
HETATM   14  H   UNN     0      30.617  29.546  23.171  0.00  0.00     0.167 HD
ENDBRANCH  11  13
ENDBRANCH  10  11
ENDBRANCH   1  10
TORSDOF 3
ENDMDL
MODEL 3
REMARK VINA RESULT:      -4.0      1.359      2.021
REMARK  3 active torsions:
REMARK  status: ('A' for Active; 'I' for Inactive)
REMARK    1  A    between atoms: O_1  and  C_10 
REMARK    2  A    between atoms: N_3  and  C_7 
REMARK       I    between atoms: N_3  and  C_9 
REMARK       I    between atoms: N_4  and  C_9 
REMARK    3  A    between atoms: C_7  and  C_10 
ROOT
HETATM    1  N   UNN     0      29.894  48.001  28.621  0.00  0.00    -0.213 N 
HETATM    2  N   UNN     0      28.510  49.662  29.078  0.00  0.00    -0.235 N 
HETATM    3  N   UNN     0      30.397  50.148  28.193  0.00  0.00    -0.235 N 
HETATM    4  HN  UNN     0      31.323  49.970  27.803  1.00  0.00     0.174 HD
HETATM    5  C   UNN     0      28.878  47.040  29.110  0.00  0.00     0.169 C 
HETATM    6  C   UNN     0      29.618  49.245  28.618  0.00  0.00     0.667 C 
HETATM    7  H   UNN     0      27.778  49.020  29.464  0.00  0.00     0.174 HD
HETATM    8  H   UNN     0      28.286  50.689  29.089  0.00  0.00     0.174 HD
HETATM    9  H   UNN     0      29.983  51.078  28.288  0.00  0.00     0.174 HD
ENDROOT
BRANCH   1  10
HETATM   10  C   UNN     0      31.215  47.559  28.115  0.00  0.00     0.250 C 
BRANCH  10  11
HETATM   11  C   UNN     0      32.103  47.216  29.301  0.00  0.00     0.158 C 
HETATM   12  O   UNN     0      32.499  46.118  29.606  0.00  0.00    -0.649 OA
BRANCH  11  13
HETATM   13  O   UNN     0      32.423  48.310  30.019  0.00  0.00    -0.775 OA
HETATM   14  H   UNN     0      32.795  48.016  30.867  0.00  0.00     0.167 HD
ENDBRANCH  11  13
ENDBRANCH  10  11
ENDBRANCH   1  10
TORSDOF 3
ENDMDL
MODEL 4
REMARK VINA RESULT:      -3.9      9.414      9.913
REMARK  3 active torsions:
REMARK  status: ('A' for Active; 'I' for Inactive)
REMARK    1  A    between atoms: O_1  and  C_10 
REMARK    2  A    between atoms: N_3  and  C_7 
REMARK       I    between atoms: N_3  and  C_9 
REMARK       I    between atoms: N_4  and  C_9 
REMARK    3  A    between atoms: C_7  and  C_10 
ROOT
HETATM    1  N   UNN     0      29.267  48.580  37.990  0.00  0.00    -0.213 N 
HETATM    2  N   UNN     0      31.218  47.625  37.584  0.00  0.00    -0.235 N 
HETATM    3  N   UNN     0      29.687  46.427  38.479  0.00  0.00    -0.235 N 
HETATM    4  HN  UNN     0      28.767  46.221  38.870  1.00  0.00     0.174 HD
HETATM    5  C   UNN     0      29.773  49.835  37.387  0.00  0.00     0.169 C 
HETATM    6  C   UNN     0      30.027  47.557  38.018  0.00  0.00     0.667 C 
HETATM    7  H   UNN     0      31.626  48.501  37.180  0.00  0.00     0.174 HD
HETATM    8  H   UNN     0      31.850  46.786  37.619  0.00  0.00     0.174 HD
HETATM    9  H   UNN     0      30.448  45.749  38.412  0.00  0.00     0.174 HD
ENDROOT
BRANCH   1  10
HETATM   10  C   UNN     0      27.897  48.470  38.545  0.00  0.00     0.250 C 
BRANCH  10  11
HETATM   11  C   UNN     0      26.904  48.449  37.394  0.00  0.00     0.158 C 
HETATM   12  O   UNN     0      26.155  49.341  37.077  0.00  0.00    -0.649 OA
BRANCH  11  13
HETATM   13  O   UNN     0      26.937  47.279  36.727  0.00  0.00    -0.775 OA
HETATM   14  H   UNN     0      27.554  47.374  35.982  0.00  0.00     0.167 HD
ENDBRANCH  11  13
ENDBRANCH  10  11
ENDBRANCH   1  10
TORSDOF 3
ENDMDL
MODEL 5
REMARK VINA RESULT:      -3.9     13.882     14.855
REMARK  3 active torsions:
REMARK  status: ('A' for Active; 'I' for Inactive)
REMARK    1  A    between atoms: O_1  and  C_10 
REMARK    2  A    between atoms: N_3  and  C_7 
REMARK       I    between atoms: N_3  and  C_9 
REMARK       I    between atoms: N_4  and  C_9 
REMARK    3  A    between atoms: C_7  and  C_10 
ROOT
HETATM    1  N   UNN     0      30.540  32.495  25.342  0.00  0.00    -0.213 N 
HETATM    2  N   UNN     0      28.825  31.857  26.583  0.00  0.00    -0.235 N 
HETATM    3  N   UNN     0      29.832  33.666  27.125  0.00  0.00    -0.235 N 
HETATM    4  HN  UNN     0      30.529  34.407  27.055  1.00  0.00     0.174 HD
HETATM    5  C   UNN     0      30.317  31.327  24.460  0.00  0.00     0.169 C 
HETATM    6  C   UNN     0      29.754  32.685  26.328  0.00  0.00     0.667 C 
HETATM    7  H   UNN     0      28.654  31.001  26.003  0.00  0.00     0.174 HD
HETATM    8  H   UNN     0      28.185  32.004  27.402  0.00  0.00     0.174 HD
HETATM    9  H   UNN     0      29.110  33.622  27.847  0.00  0.00     0.174 HD
ENDROOT
BRANCH   1  10
HETATM   10  C   UNN     0      31.637  33.463  25.105  0.00  0.00     0.250 C 
BRANCH  10  11
HETATM   11  C   UNN     0      31.222  34.408  23.988  0.00  0.00     0.158 C 
HETATM   12  O   UNN     0      31.578  34.355  22.835  0.00  0.00    -0.649 OA
BRANCH  11  13
HETATM   13  O   UNN     0      30.377  35.360  24.426  0.00  0.00    -0.775 OA
HETATM   14  H   UNN     0      29.507  35.202  24.022  0.00  0.00     0.167 HD
ENDBRANCH  11  13
ENDBRANCH  10  11
ENDBRANCH   1  10
TORSDOF 3
ENDMDL
MODEL 6
REMARK VINA RESULT:      -3.8     10.406     10.774
REMARK  3 active torsions:
REMARK  status: ('A' for Active; 'I' for Inactive)
REMARK    1  A    between atoms: O_1  and  C_10 
REMARK    2  A    between atoms: N_3  and  C_7 
REMARK       I    between atoms: N_3  and  C_9 
REMARK       I    between atoms: N_4  and  C_9 
REMARK    3  A    between atoms: C_7  and  C_10 
ROOT
HETATM    1  N   UNN     0      22.792  44.899  21.619  0.00  0.00    -0.213 N 
HETATM    2  N   UNN     0      22.992  46.874  22.590  0.00  0.00    -0.235 N 
HETATM    3  N   UNN     0      21.150  45.816  22.849  0.00  0.00    -0.235 N 
HETATM    4  HN  UNN     0      20.484  45.052  22.733  1.00  0.00     0.174 HD
HETATM    5  C   UNN     0      24.181  45.020  21.120  0.00  0.00     0.169 C 
HETATM    6  C   UNN     0      22.311  45.831  22.344  0.00  0.00     0.667 C 
HETATM    7  H   UNN     0      23.965  47.015  22.229  0.00  0.00     0.174 HD
HETATM    8  H   UNN     0      22.593  47.650  23.176  0.00  0.00     0.174 HD
HETATM    9  H   UNN     0      20.963  46.664  23.389  0.00  0.00     0.174 HD
ENDROOT
BRANCH   1  10
HETATM   10  C   UNN     0      21.949  43.717  21.320  0.00  0.00     0.250 C 
BRANCH  10  11
HETATM   11  C   UNN     0      22.464  42.533  22.123  0.00  0.00     0.158 C 
HETATM   12  O   UNN     0      22.147  42.240  23.251  0.00  0.00    -0.649 OA
BRANCH  11  13
HETATM   13  O   UNN     0      23.355  41.804  21.424  0.00  0.00    -0.775 OA
HETATM   14  H   UNN     0      23.111  40.868  21.509  0.00  0.00     0.167 HD
ENDBRANCH  11  13
ENDBRANCH  10  11
ENDBRANCH   1  10
TORSDOF 3
ENDMDL
MODEL 7
REMARK VINA RESULT:      -3.7     14.462     15.539
REMARK  3 active torsions:
REMARK  status: ('A' for Active; 'I' for Inactive)
REMARK    1  A    between atoms: O_1  and  C_10 
REMARK    2  A    between atoms: N_3  and  C_7 
REMARK       I    between atoms: N_3  and  C_9 
REMARK       I    between atoms: N_4  and  C_9 
REMARK    3  A    between atoms: C_7  and  C_10 
ROOT
HETATM    1  N   UNN     0      30.473  32.231  25.355  0.00  0.00    -0.213 N 
HETATM    2  N   UNN     0      30.039  30.372  24.241  0.00  0.00    -0.235 N 
HETATM    3  N   UNN     0      32.075  31.020  24.346  0.00  0.00    -0.235 N 
HETATM    4  HN  UNN     0      32.854  31.626  24.608  1.00  0.00     0.174 HD
HETATM    5  C   UNN     0      29.037  32.342  25.700  0.00  0.00     0.169 C 
HETATM    6  C   UNN     0      30.869  31.232  24.669  0.00  0.00     0.667 C 
HETATM    7  H   UNN     0      29.011  30.431  24.434  0.00  0.00     0.174 HD
HETATM    8  H   UNN     0      30.361  29.555  23.664  0.00  0.00     0.174 HD
HETATM    9  H   UNN     0      32.172  30.168  23.790  0.00  0.00     0.174 HD
ENDROOT
BRANCH   1  10
HETATM   10  C   UNN     0      31.469  33.234  25.799  0.00  0.00     0.250 C 
BRANCH  10  11
HETATM   11  C   UNN     0      31.073  34.594  25.247  0.00  0.00     0.158 C 
HETATM   12  O   UNN     0      30.842  35.589  25.890  0.00  0.00    -0.649 OA
BRANCH  11  13
HETATM   13  O   UNN     0      30.997  34.585  23.902  0.00  0.00    -0.775 OA
HETATM   14  H   UNN     0      31.278  33.709  23.590  0.00  0.00     0.167 HD
ENDBRANCH  11  13
ENDBRANCH  10  11
ENDBRANCH   1  10
TORSDOF 3
ENDMDL
MODEL 8
REMARK VINA RESULT:      -3.5     52.895     53.713
REMARK  3 active torsions:
REMARK  status: ('A' for Active; 'I' for Inactive)
REMARK    1  A    between atoms: O_1  and  C_10 
REMARK    2  A    between atoms: N_3  and  C_7 
REMARK       I    between atoms: N_3  and  C_9 
REMARK       I    between atoms: N_4  and  C_9 
REMARK    3  A    between atoms: C_7  and  C_10 
ROOT
HETATM    1  N   UNN     0      19.216   8.473  -5.502  0.00  0.00    -0.213 N 
HETATM    2  N   UNN     0      19.917  10.539  -5.859  0.00  0.00    -0.235 N 
HETATM    3  N   UNN     0      19.025   9.489  -7.497  0.00  0.00    -0.235 N 
HETATM    4  HN  UNN     0      18.582   8.706  -7.978  1.00  0.00     0.174 HD
HETATM    5  C   UNN     0      19.627   8.595  -4.084  0.00  0.00     0.169 C 
HETATM    6  C   UNN     0      19.370   9.472  -6.279  0.00  0.00     0.667 C 
HETATM    7  H   UNN     0      20.252  10.655  -4.874  0.00  0.00     0.174 HD
HETATM    8  H   UNN     0      20.057  11.358  -6.502  0.00  0.00     0.174 HD
HETATM    9  H   UNN     0      19.244  10.385  -7.938  0.00  0.00     0.174 HD
ENDROOT
BRANCH   1  10
HETATM   10  C   UNN     0      18.612   7.233  -6.042  0.00  0.00     0.250 C 
BRANCH  10  11
HETATM   11  C   UNN     0      19.728   6.280  -6.442  0.00  0.00     0.158 C 
HETATM   12  O   UNN     0      20.292   5.494  -5.721  0.00  0.00    -0.649 OA
BRANCH  11  13
HETATM   13  O   UNN     0      20.047   6.403  -7.745  0.00  0.00    -0.775 OA
HETATM   14  H   UNN     0      20.313   7.324  -7.905  0.00  0.00     0.167 HD
ENDBRANCH  11  13
ENDBRANCH  10  11
ENDBRANCH   1  10
TORSDOF 3
ENDMDL
MODEL 9
REMARK VINA RESULT:      -3.5     14.107     14.950
REMARK  3 active torsions:
REMARK  status: ('A' for Active; 'I' for Inactive)
REMARK    1  A    between atoms: O_1  and  C_10 
REMARK    2  A    between atoms: N_3  and  C_7 
REMARK       I    between atoms: N_3  and  C_9 
REMARK       I    between atoms: N_4  and  C_9 
REMARK    3  A    between atoms: C_7  and  C_10 
ROOT
HETATM    1  N   UNN     0      31.307  33.641  26.169  0.00  0.00    -0.213 N 
HETATM    2  N   UNN     0      30.231  34.467  27.915  0.00  0.00    -0.235 N 
HETATM    3  N   UNN     0      29.212  33.026  26.704  0.00  0.00    -0.235 N 
HETATM    4  HN  UNN     0      29.089  32.371  25.931  1.00  0.00     0.174 HD
HETATM    5  C   UNN     0      32.494  34.446  26.539  0.00  0.00     0.169 C 
HETATM    6  C   UNN     0      30.268  33.695  26.907  0.00  0.00     0.667 C 
HETATM    7  H   UNN     0      31.036  35.077  28.192  0.00  0.00     0.174 HD
HETATM    8  H   UNN     0      29.371  34.522  28.517  0.00  0.00     0.174 HD
HETATM    9  H   UNN     0      28.500  33.223  27.410  0.00  0.00     0.174 HD
ENDROOT
BRANCH   1  10
HETATM   10  C   UNN     0      31.294  32.759  24.979  0.00  0.00     0.250 C 
BRANCH  10  11
HETATM   11  C   UNN     0      31.939  31.432  25.347  0.00  0.00     0.158 C 
HETATM   12  O   UNN     0      31.588  30.685  26.227  0.00  0.00    -0.649 OA
BRANCH  11  13
HETATM   13  O   UNN     0      32.995  31.154  24.559  0.00  0.00    -0.775 OA
HETATM   14  H   UNN     0      33.129  31.904  23.956  0.00  0.00     0.167 HD
ENDBRANCH  11  13
ENDBRANCH  10  11
ENDBRANCH   1  10
TORSDOF 3
ENDMDL
