REMARK  12 active torsions:
REMARK  status: ('A' for Active; 'I' for Inactive)
REMARK    1  A    between atoms: P_1  and  O_5 
REMARK    2  A    between atoms: P_1  and  O_6 
REMARK    3  A    between atoms: P_1  and  O_7 
REMARK    4  A    between atoms: O_5  and  C_27 
REMARK    5  A    between atoms: O_9  and  C_37 
REMARK    6  A    between atoms: O_10  and  C_38 
REMARK    7  A    between atoms: O_11  and  C_39 
REMARK    8  A    between atoms: N_12  and  C_27 
REMARK    9  A    between atoms: N_15  and  C_29 
REMARK   10  A    between atoms: N_15  and  C_31 
REMARK   11  A    between atoms: N_18  and  C_33 
REMARK   12  A    between atoms: N_18  and  C_34 
ROOT
HETATM    1  N   UNN     0       0.959  -3.828   0.138  0.00  0.00    -0.326 N 
HETATM    2  H   UNN     0       1.317  -4.817   0.186  0.00  0.00     0.169 HD
ENDROOT
BRANCH   1   3
HETATM    3  C   UNN     0       1.875  -2.945   0.106  0.00  0.00     0.108 A 
HETATM    4  N   UNN     0       1.704  -1.702  -0.077  0.00  0.00    -0.326 N 
HETATM    5  C   UNN     0       2.662  -0.873  -0.174  0.00  0.00     0.147 A 
HETATM    6  HN  UNN     0       0.749  -1.350  -0.150  1.00  0.00     0.169 HD
HETATM    7  N   UNN     0       2.418   0.434  -0.452  0.00  0.00    -0.276 N 
HETATM    8  C   UNN     0       3.946  -1.263  -0.036  0.00  0.00     0.115 A 
HETATM    9  C   UNN     0       3.408   1.385  -0.427  0.00  0.00     0.262 C 
HETATM   10  O   UNN     0       3.258   2.507  -0.847  0.00  0.00    -0.269 OA
HETATM   11  C   UNN     0       4.712   0.929   0.228  0.00  0.00     0.141 C 
HETATM   12  O   UNN     0       5.006  -0.401  -0.083  0.00  0.00    -0.327 OA
HETATM   13  C   UNN     0       5.898   1.779  -0.241  0.00  0.00     0.057 C 
HETATM   14  C   UNN     0       4.547   1.069   1.748  0.00  0.00     0.057 C 
HETATM   15  C   UNN     0       4.160  -2.568   0.196  0.00  0.00     0.044 A 
HETATM   16  C   UNN     0       3.126  -3.417   0.240  0.00  0.00     0.051 A 
BRANCH   7  17
HETATM   17  C   UNN     0       1.076   0.852  -0.888  0.00  0.00     0.316 C 
BRANCH  17  18
HETATM   18  O   UNN     0       0.881   0.626  -2.273  0.00  0.00    -0.277 OA
BRANCH  18  19
HETATM   19  P   UNN     0      -0.610   0.692  -2.852  0.00  0.00     0.392 P 
HETATM   20  O   UNN     0      -0.702   0.921  -4.316  0.00  0.00    -0.632 OA
BRANCH  19  21
HETATM   21  O   UNN     0      -1.649   1.701  -2.138  0.00  0.00    -0.307 OA
HETATM   22  H   UNN     0      -1.944   2.335  -2.766  0.00  0.00     0.222 HD
ENDBRANCH  19  21
BRANCH  19  23
HETATM   23  O   UNN     0      -1.447  -0.682  -2.632  0.00  0.00    -0.307 OA
HETATM   24  H   UNN     0      -1.689  -1.015  -3.478  0.00  0.00     0.222 HD
ENDBRANCH  19  23
ENDBRANCH  18  19
ENDBRANCH  17  18
ENDBRANCH   7  17
ENDBRANCH   1   3
BRANCH   1  25
HETATM   25  C   UNN     0      -0.310  -3.761   0.089  0.00  0.00     0.163 A 
HETATM   26  N   UNN     0      -1.032  -2.719   0.124  0.00  0.00    -0.173 N 
HETATM   27  C   UNN     0      -2.298  -2.748   0.007  0.00  0.00     0.684 A 
HETATM   28  HN  UNN     0      -0.576  -1.816   0.252  1.00  0.00     0.186 HD
HETATM   29  N   UNN     0      -2.902  -3.850  -0.189  0.00  0.00    -0.199 N 
HETATM   30  C   UNN     0      -2.250  -4.932  -0.185  0.00  0.00     0.152 A 
HETATM   31  HN  UNN     0      -3.909  -3.860  -0.349  1.00  0.00     0.183 HD
HETATM   32  C   UNN     0      -0.920  -4.955  -0.033  0.00  0.00     0.176 A 
HETATM   33  F   UNN     0      -0.255  -6.102  -0.031  0.00  0.00    -0.201 F 
BRANCH  27  34
HETATM   34  N   UNN     0      -3.059  -1.726   0.051  0.00  0.00    -0.191 N 
HETATM   35  H   UNN     0      -4.048  -1.955  -0.226  0.00  0.00     0.184 HD
BRANCH  34  36
HETATM   36  C   UNN     0      -2.913  -0.496   0.348  0.00  0.00     0.054 A 
HETATM   37  C   UNN     0      -3.956   0.317   0.116  0.00  0.00     0.069 A 
HETATM   38  C   UNN     0      -3.921   1.639   0.374  0.00  0.00     0.106 A 
HETATM   39  C   UNN     0      -2.777   2.159   0.876  0.00  0.00     0.135 A 
HETATM   40  C   UNN     0      -1.734   1.363   1.204  0.00  0.00     0.106 A 
HETATM   41  C   UNN     0      -1.832   0.050   0.924  0.00  0.00     0.069 A 
BRANCH  38  42
HETATM   42  O   UNN     0      -4.960   2.504   0.112  0.00  0.00    -0.353 OA
HETATM   43  C   UNN     0      -6.082   2.038  -0.602  0.00  0.00     0.210 C 
ENDBRANCH  38  42
BRANCH  39  44
HETATM   44  O   UNN     0      -2.726   3.499   1.183  0.00  0.00    -0.351 OA
HETATM   45  C   UNN     0      -2.122   4.283   0.177  0.00  0.00     0.210 C 
ENDBRANCH  39  44
BRANCH  40  46
HETATM   46  O   UNN     0      -0.648   1.929   1.837  0.00  0.00    -0.353 OA
HETATM   47  C   UNN     0       0.187   1.113   2.629  0.00  0.00     0.210 C 
ENDBRANCH  40  46
ENDBRANCH  34  36
ENDBRANCH  27  34
ENDBRANCH   1  25
TORSDOF 12
