REMARK  13 active torsions:
REMARK  status: ('A' for Active; 'I' for Inactive)
REMARK    1  A    between atoms: O_1  and  C_19 
REMARK    2  A    between atoms: O_2  and  C_23 
REMARK    3  A    between atoms: O_3  and  C_27 
REMARK    4  A    between atoms: O_4  and  C_30 
REMARK    5  A    between atoms: N_5  and  C_12 
REMARK    6  A    between atoms: N_5  and  C_18 
REMARK    7  A    between atoms: C_7  and  C_8 
REMARK    8  A    between atoms: C_7  and  C_9 
REMARK    9  A    between atoms: C_7  and  C_11 
REMARK   10  A    between atoms: C_9  and  C_10 
REMARK   11  A    between atoms: C_10  and  C_12 
REMARK   12  A    between atoms: C_18  and  C_22 
REMARK   13  A    between atoms: C_22  and  C_24 
ROOT
HETATM    1  N   UNN     0      -5.235  -0.887  -0.914  0.00  0.00    -0.196 NA
HETATM    2  C   UNN     0      -3.003  -0.739   0.491  0.00  0.00     0.079 C 
HETATM    3  C   UNN     0      -4.256  -0.814  -0.299  0.00  0.00     0.074 C 
ENDROOT
BRANCH   2   4
HETATM    4  C   UNN     0      -3.398  -0.583   1.987  0.00  0.00     0.004 C 
HETATM    5  C   UNN     0      -4.282  -1.724   2.528  0.00  0.00     0.011 C 
HETATM    6  C   UNN     0      -4.089   0.768   2.263  0.00  0.00     0.011 C 
ENDBRANCH   2   4
BRANCH   2   7
HETATM    7  C   UNN     0      -2.242  -2.062   0.219  0.00  0.00     0.032 C 
BRANCH   7   8
HETATM    8  C   UNN     0      -1.727  -2.206  -1.227  0.00  0.00     0.032 C 
BRANCH   8   9
HETATM    9  C   UNN     0      -0.839  -3.451  -1.433  0.00  0.00     0.272 C 
BRANCH   9  10
HETATM   10  N   UNN     0       0.288  -3.572  -0.508  0.00  0.00     0.084 N 
HETATM   11  C   UNN     0       1.005  -4.815  -0.759  0.00  0.00     0.309 C 
BRANCH  10  12
HETATM   12  C   UNN     0       1.180  -2.418  -0.565  0.00  0.00     0.276 C 
BRANCH  12  13
HETATM   13  C   UNN     0       2.323  -2.456   0.467  0.00  0.00     0.068 C 
BRANCH  13  14
HETATM   14  C   UNN     0       2.893  -1.071   0.701  0.00  0.00    -0.054 A 
HETATM   15  C   UNN     0       3.569  -0.427  -0.264  0.00  0.00     0.046 A 
HETATM   16  C   UNN     0       4.080   0.812  -0.109  0.00  0.00     0.102 A 
HETATM   17  C   UNN     0       3.890   1.447   1.073  0.00  0.00     0.101 A 
HETATM   18  C   UNN     0       3.210   0.800   2.041  0.00  0.00     0.040 A 
HETATM   19  C   UNN     0       2.719  -0.434   1.867  0.00  0.00     0.010 A 
BRANCH  16  20
HETATM   20  O   UNN     0       4.755   1.493  -1.097  0.00  0.00    -0.353 OA
HETATM   21  C   UNN     0       4.782   0.964  -2.402  0.00  0.00     0.210 C 
ENDBRANCH  16  20
BRANCH  17  22
HETATM   22  O   UNN     0       4.395   2.721   1.206  0.00  0.00    -0.353 OA
HETATM   23  C   UNN     0       4.176   3.426   2.405  0.00  0.00     0.210 C 
ENDBRANCH  17  22
ENDBRANCH  13  14
ENDBRANCH  12  13
ENDBRANCH  10  12
ENDBRANCH   9  10
ENDBRANCH   8   9
ENDBRANCH   7   8
ENDBRANCH   2   7
BRANCH   2  24
HETATM   24  C   UNN     0      -2.126   0.443   0.062  0.00  0.00    -0.032 A 
HETATM   25  C   UNN     0      -2.491   1.321  -0.890  0.00  0.00     0.048 A 
HETATM   26  C   UNN     0      -1.727   2.357  -1.295  0.00  0.00     0.102 A 
HETATM   27  C   UNN     0      -0.521   2.541  -0.706  0.00  0.00     0.101 A 
HETATM   28  C   UNN     0      -0.143   1.664   0.243  0.00  0.00     0.040 A 
HETATM   29  C   UNN     0      -0.925   0.646   0.626  0.00  0.00     0.012 A 
BRANCH  26  30
HETATM   30  O   UNN     0      -2.098   3.255  -2.272  0.00  0.00    -0.353 OA
HETATM   31  C   UNN     0      -3.361   3.133  -2.884  0.00  0.00     0.210 C 
ENDBRANCH  26  30
BRANCH  27  32
HETATM   32  O   UNN     0       0.259   3.590  -1.140  0.00  0.00    -0.353 OA
HETATM   33  C   UNN     0       1.604   3.659  -0.728  0.00  0.00     0.210 C 
ENDBRANCH  27  32
ENDBRANCH   2  24
TORSDOF 13
