REMARK  5 active torsions:
REMARK  status: ('A' for Active; 'I' for Inactive)
REMARK    1  A    between atoms: O_3  and  C_30 
REMARK    2  A    between atoms: O_3  and  C_31 
REMARK       I    between atoms: N_5  and  C_21 
REMARK       I    between atoms: N_9  and  C_23 
REMARK    3  A    between atoms: C_10  and  C_11 
REMARK    4  A    between atoms: C_19  and  C_23 
REMARK    5  A    between atoms: C_21  and  C_24 
ROOT
HETATM    1  N   UNN     0       1.136  -1.824   0.520  0.00  0.00    -0.270 N 
HETATM    2  N   UNN     0       1.509  -3.852  -0.432  0.00  0.00    -0.374 N 
HETATM    3  N   UNN     0       0.201  -1.065   0.777  0.00  0.00    -0.295 N 
HETATM    4  HN  UNN     0       0.296  -0.127   1.167  1.00  0.00     0.187 HD
HETATM    5  C   UNN     0       2.575  -1.615   0.807  0.00  0.00     0.115 C 
HETATM    6  C   UNN     0       3.436  -2.371  -0.219  0.00  0.00     0.047 C 
HETATM    7  C   UNN     0       2.972  -3.831  -0.274  0.00  0.00     0.123 C 
HETATM    8  C   UNN     0       0.771  -2.921   0.003  0.00  0.00     0.136 A 
HETATM    9  C   UNN     0      -0.566  -2.811  -0.079  0.00  0.00     0.105 A 
HETATM   10  C   UNN     0      -0.902  -1.627   0.483  0.00  0.00     0.078 A 
HETATM   11  C   UNN     0      -2.078  -1.016   0.754  0.00  0.00    -0.007 A 
HETATM   12  C   UNN     0      -3.278  -1.627   0.750  0.00  0.00     0.016 A 
HETATM   13  C   UNN     0      -2.102   0.281   1.129  0.00  0.00     0.016 A 
HETATM   14  C   UNN     0      -4.421  -0.981   1.027  0.00  0.00     0.038 A 
HETATM   15  C   UNN     0      -3.243   0.931   1.405  0.00  0.00     0.038 A 
HETATM   16  C   UNN     0      -4.440   0.325   1.345  0.00  0.00     0.076 A 
HETATM   17  H   UNN     0       1.049  -4.659  -0.920  0.00  0.00     0.161 HD
ENDROOT
BRANCH   9  18
HETATM   18  C   UNN     0      -1.342  -3.734  -0.700  0.00  0.00     0.255 C 
HETATM   19  O   UNN     0      -1.070  -4.891  -0.905  0.00  0.00    -0.268 OA
HETATM   20  N   UNN     0      -2.404  -3.202  -1.356  0.00  0.00    -0.366 N 
HETATM   21  H   UNN     0      -2.588  -2.210  -1.297  0.00  0.00     0.159 HD
HETATM   22  H   UNN     0      -2.978  -3.823  -1.906  0.00  0.00     0.159 HD
ENDBRANCH   9  18
BRANCH   5  23
HETATM   23  C   UNN     0       2.932  -0.116   0.952  0.00  0.00     0.014 C 
HETATM   24  C   UNN     0       4.351   0.121   1.505  0.00  0.00     0.027 C 
HETATM   25  C   UNN     0       4.632   1.624   1.667  0.00  0.00     0.126 C 
HETATM   26  N   UNN     0       4.460   2.261   0.360  0.00  0.00    -0.349 N 
HETATM   27  C   UNN     0       3.066   2.182  -0.080  0.00  0.00     0.126 C 
HETATM   28  C   UNN     0       5.527   2.718  -0.390  0.00  0.00     0.242 C 
HETATM   29  C   UNN     0       2.726   0.706  -0.336  0.00  0.00     0.027 C 
HETATM   30  O   UNN     0       6.640   2.730   0.087  0.00  0.00    -0.268 OA
BRANCH  28  31
HETATM   31  C   UNN     0       5.339   3.141  -1.672  0.00  0.00     0.064 C 
HETATM   32  C   UNN     0       6.326   3.603  -2.459  0.00  0.00     0.017 C 
ENDBRANCH  28  31
ENDBRANCH   5  23
BRANCH  16  33
HETATM   33  O   UNN     0      -5.605   0.985   1.632  0.00  0.00    -0.311 OA
BRANCH  33  34
HETATM   34  C   UNN     0      -6.192   1.556   0.534  0.00  0.00     0.076 A 
HETATM   35  C   UNN     0      -7.087   0.882  -0.215  0.00  0.00     0.037 A 
HETATM   36  C   UNN     0      -7.667   1.434  -1.292  0.00  0.00     0.003 A 
HETATM   37  C   UNN     0      -7.363   2.691  -1.646  0.00  0.00     0.000 A 
HETATM   38  C   UNN     0      -6.479   3.385  -0.913  0.00  0.00     0.003 A 
HETATM   39  C   UNN     0      -5.908   2.818   0.161  0.00  0.00     0.037 A 
ENDBRANCH  33  34
ENDBRANCH  16  33
TORSDOF 5
