MODEL 1
REMARK VINA RESULT:      -4.5      0.000      0.000
REMARK  7 active torsions:
REMARK  status: ('A' for Active; 'I' for Inactive)
REMARK    1  A    between atoms: C_1  and  C_3 
REMARK    2  A    between atoms: C_1  and  O_10 
REMARK    3  A    between atoms: N_2  and  C_3 
REMARK    4  A    between atoms: C_3  and  C_4 
REMARK    5  A    between atoms: C_4  and  C_5 
REMARK    6  A    between atoms: C_5  and  C_6 
REMARK    7  A    between atoms: C_6  and  O_8 
ROOT
HETATM    1  C           1      29.476  48.107  29.071  0.00  0.00     0.315 C 
ENDROOT
BRANCH   1   2
HETATM    2  C           1      28.690  46.991  29.733  0.00  0.00     0.173 C 
HETATM    3  O           1      29.001  45.825  29.763  0.00  0.00    -0.648 OA
BRANCH   2   4
HETATM    4  O           1      27.542  47.428  30.287  0.00  0.00    -0.775 OA
HETATM    5  H           1      26.816  46.882  29.946  0.00  0.00     0.167 HD
ENDBRANCH   2   4
ENDBRANCH   1   2
BRANCH   1   6
HETATM    6  N           1      28.645  49.321  29.055  0.00  0.00     0.093 N 
HETATM    7  H           1      27.677  49.108  29.353  0.00  0.00     0.314 HD
HETATM    8  H           1      28.991  50.012  29.743  0.00  0.00     0.314 HD
ENDBRANCH   1   6
BRANCH   1   9
HETATM    9  C           1      30.841  48.411  29.712  0.00  0.00     0.057 C 
BRANCH   9  10
HETATM   10  C           1      32.023  48.016  28.813  0.00  0.00     0.112 C 
BRANCH  10  11
HETATM   11  C           1      32.272  46.520  28.857  0.00  0.00     0.139 C 
HETATM   12  O           1      31.950  45.715  28.017  0.00  0.00    -0.650 OA
BRANCH  11  13
HETATM   13  O           1      32.929  46.156  29.976  0.00  0.00    -0.776 OA
HETATM   14  H           1      33.883  46.188  29.794  0.00  0.00     0.167 HD
ENDBRANCH  11  13
ENDBRANCH  10  11
ENDBRANCH   9  10
ENDBRANCH   1   9
TORSDOF 7
ENDMDL
MODEL 2
REMARK VINA RESULT:      -4.3      2.135      2.507
REMARK  7 active torsions:
REMARK  status: ('A' for Active; 'I' for Inactive)
REMARK    1  A    between atoms: C_1  and  C_3 
REMARK    2  A    between atoms: C_1  and  O_10 
REMARK    3  A    between atoms: N_2  and  C_3 
REMARK    4  A    between atoms: C_3  and  C_4 
REMARK    5  A    between atoms: C_4  and  C_5 
REMARK    6  A    between atoms: C_5  and  C_6 
REMARK    7  A    between atoms: C_6  and  O_8 
ROOT
HETATM    1  C           1      29.594  46.920  29.091  0.00  0.00     0.315 C 
ENDROOT
BRANCH   1   2
HETATM    2  C           1      28.589  46.510  30.152  0.00  0.00     0.173 C 
HETATM    3  O           1      28.610  45.485  30.790  0.00  0.00    -0.648 OA
BRANCH   2   4
HETATM    4  O           1      27.606  47.418  30.307  0.00  0.00    -0.775 OA
HETATM    5  H           1      28.008  48.250  30.602  0.00  0.00     0.167 HD
ENDBRANCH   2   4
ENDBRANCH   1   2
BRANCH   1   6
HETATM    6  N           1      29.439  46.031  27.930  0.00  0.00     0.093 N 
HETATM    7  H           1      30.156  46.235  27.212  0.00  0.00     0.314 HD
HETATM    8  H           1      29.602  45.045  28.198  0.00  0.00     0.314 HD
ENDBRANCH   1   6
BRANCH   1   9
HETATM    9  C           1      29.507  48.390  28.645  0.00  0.00     0.057 C 
BRANCH   9  10
HETATM   10  C           1      30.862  49.111  28.701  0.00  0.00     0.112 C 
BRANCH  10  11
HETATM   11  C           1      31.454  49.066  30.098  0.00  0.00     0.139 C 
HETATM   12  O           1      32.482  48.525  30.423  0.00  0.00    -0.650 OA
BRANCH  11  13
HETATM   13  O           1      30.686  49.728  30.986  0.00  0.00    -0.776 OA
HETATM   14  H           1      30.633  50.658  30.709  0.00  0.00     0.167 HD
ENDBRANCH  11  13
ENDBRANCH  10  11
ENDBRANCH   9  10
ENDBRANCH   1   9
TORSDOF 7
ENDMDL
MODEL 3
REMARK VINA RESULT:      -4.0     15.128     15.999
REMARK  7 active torsions:
REMARK  status: ('A' for Active; 'I' for Inactive)
REMARK    1  A    between atoms: C_1  and  C_3 
REMARK    2  A    between atoms: C_1  and  O_10 
REMARK    3  A    between atoms: N_2  and  C_3 
REMARK    4  A    between atoms: C_3  and  C_4 
REMARK    5  A    between atoms: C_4  and  C_5 
REMARK    6  A    between atoms: C_5  and  C_6 
REMARK    7  A    between atoms: C_6  and  O_8 
ROOT
HETATM    1  C           1      31.371  32.732  26.393  0.00  0.00     0.315 C 
ENDROOT
BRANCH   1   2
HETATM    2  C           1      30.230  33.489  27.046  0.00  0.00     0.173 C 
HETATM    3  O           1      30.340  34.401  27.830  0.00  0.00    -0.648 OA
BRANCH   2   4
HETATM    4  O           1      29.022  33.013  26.684  0.00  0.00    -0.775 OA
HETATM    5  H           1      28.343  33.559  27.112  0.00  0.00     0.167 HD
ENDBRANCH   2   4
ENDBRANCH   1   2
BRANCH   1   6
HETATM    6  N           1      31.588  31.479  27.132  0.00  0.00     0.093 N 
HETATM    7  H           1      32.316  31.601  27.857  0.00  0.00     0.314 HD
HETATM    8  H           1      30.735  31.208  27.653  0.00  0.00     0.314 HD
ENDBRANCH   1   6
BRANCH   1   9
HETATM    9  C           1      31.183  32.435  24.895  0.00  0.00     0.057 C 
BRANCH   9  10
HETATM   10  C           1      31.153  30.931  24.584  0.00  0.00     0.112 C 
BRANCH  10  11
HETATM   11  C           1      29.820  30.517  23.990  0.00  0.00     0.139 C 
HETATM   12  O           1      29.603  29.525  23.338  0.00  0.00    -0.650 OA
BRANCH  11  13
HETATM   13  O           1      28.847  31.404  24.281  0.00  0.00    -0.776 OA
HETATM   14  H           1      29.191  32.028  24.942  0.00  0.00     0.167 HD
ENDBRANCH  11  13
ENDBRANCH  10  11
ENDBRANCH   9  10
ENDBRANCH   1   9
TORSDOF 7
ENDMDL
MODEL 4
REMARK VINA RESULT:      -4.0      9.385      9.986
REMARK  7 active torsions:
REMARK  status: ('A' for Active; 'I' for Inactive)
REMARK    1  A    between atoms: C_1  and  C_3 
REMARK    2  A    between atoms: C_1  and  O_10 
REMARK    3  A    between atoms: N_2  and  C_3 
REMARK    4  A    between atoms: C_3  and  C_4 
REMARK    5  A    between atoms: C_4  and  C_5 
REMARK    6  A    between atoms: C_5  and  C_6 
REMARK    7  A    between atoms: C_6  and  O_8 
ROOT
HETATM    1  C           1      28.284  48.527  38.948  0.00  0.00     0.315 C 
ENDROOT
BRANCH   1   2
HETATM    2  C           1      28.181  49.386  37.702  0.00  0.00     0.173 C 
HETATM    3  O           1      29.073  49.612  36.920  0.00  0.00    -0.648 OA
BRANCH   2   4
HETATM    4  O           1      26.956  49.928  37.550  0.00  0.00    -0.775 OA
HETATM    5  H           1      26.319  49.205  37.438  0.00  0.00     0.167 HD
ENDBRANCH   2   4
ENDBRANCH   1   2
BRANCH   1   6
HETATM    6  N           1      26.927  48.252  39.443  0.00  0.00     0.093 N 
HETATM    7  H           1      26.245  48.253  38.665  0.00  0.00     0.314 HD
HETATM    8  H           1      26.870  47.301  39.848  0.00  0.00     0.314 HD
ENDBRANCH   1   6
BRANCH   1   9
HETATM    9  C           1      29.057  47.209  38.768  0.00  0.00     0.057 C 
BRANCH   9  10
HETATM   10  C           1      29.653  46.682  40.082  0.00  0.00     0.112 C 
BRANCH  10  11
HETATM   11  C           1      30.558  45.489  39.838  0.00  0.00     0.139 C 
HETATM   12  O           1      31.628  45.503  39.280  0.00  0.00    -0.650 OA
BRANCH  11  13
HETATM   13  O           1      30.030  44.353  40.335  0.00  0.00    -0.776 OA
HETATM   14  H           1      29.078  44.347  40.138  0.00  0.00     0.167 HD
ENDBRANCH  11  13
ENDBRANCH  10  11
ENDBRANCH   9  10
ENDBRANCH   1   9
TORSDOF 7
ENDMDL
MODEL 5
REMARK VINA RESULT:      -3.9     10.400     11.348
REMARK  7 active torsions:
REMARK  status: ('A' for Active; 'I' for Inactive)
REMARK    1  A    between atoms: C_1  and  C_3 
REMARK    2  A    between atoms: C_1  and  O_10 
REMARK    3  A    between atoms: N_2  and  C_3 
REMARK    4  A    between atoms: C_3  and  C_4 
REMARK    5  A    between atoms: C_4  and  C_5 
REMARK    6  A    between atoms: C_5  and  C_6 
REMARK    7  A    between atoms: C_6  and  O_8 
ROOT
HETATM    1  C           1      27.899  48.311  41.121  0.00  0.00     0.315 C 
ENDROOT
BRANCH   1   2
HETATM    2  C           1      26.524  48.324  41.762  0.00  0.00     0.173 C 
HETATM    3  O           1      26.256  48.751  42.860  0.00  0.00    -0.648 OA
BRANCH   2   4
HETATM    4  O           1      25.584  47.764  40.976  0.00  0.00    -0.775 OA
HETATM    5  H           1      25.698  46.801  41.010  0.00  0.00     0.167 HD
ENDBRANCH   2   4
ENDBRANCH   1   2
BRANCH   1   6
HETATM    6  N           1      28.722  47.298  41.799  0.00  0.00     0.093 N 
HETATM    7  H           1      29.445  47.746  42.388  0.00  0.00     0.314 HD
HETATM    8  H           1      28.150  46.740  42.457  0.00  0.00     0.314 HD
ENDBRANCH   1   6
BRANCH   1   9
HETATM    9  C           1      27.908  48.067  39.602  0.00  0.00     0.057 C 
BRANCH   9  10
HETATM   10  C           1      28.667  49.155  38.828  0.00  0.00     0.112 C 
BRANCH  10  11
HETATM   11  C           1      28.032  49.411  37.473  0.00  0.00     0.139 C 
HETATM   12  O           1      26.979  48.974  37.081  0.00  0.00    -0.650 OA
BRANCH  11  13
HETATM   13  O           1      28.793  50.223  36.712  0.00  0.00    -0.776 OA
HETATM   14  H           1      29.559  50.506  37.240  0.00  0.00     0.167 HD
ENDBRANCH  11  13
ENDBRANCH  10  11
ENDBRANCH   9  10
ENDBRANCH   1   9
TORSDOF 7
ENDMDL
MODEL 6
REMARK VINA RESULT:      -3.8     14.143     15.148
REMARK  7 active torsions:
REMARK  status: ('A' for Active; 'I' for Inactive)
REMARK    1  A    between atoms: C_1  and  C_3 
REMARK    2  A    between atoms: C_1  and  O_10 
REMARK    3  A    between atoms: N_2  and  C_3 
REMARK    4  A    between atoms: C_3  and  C_4 
REMARK    5  A    between atoms: C_4  and  C_5 
REMARK    6  A    between atoms: C_5  and  C_6 
REMARK    7  A    between atoms: C_6  and  O_8 
ROOT
HETATM    1  C           1      30.922  33.839  26.692  0.00  0.00     0.315 C 
ENDROOT
BRANCH   1   2
HETATM    2  C           1      31.119  34.843  25.572  0.00  0.00     0.173 C 
HETATM    3  O           1      32.068  35.577  25.435  0.00  0.00    -0.648 OA
BRANCH   2   4
HETATM    4  O           1      30.079  34.871  24.716  0.00  0.00    -0.775 OA
HETATM    5  H           1      29.722  35.773  24.704  0.00  0.00     0.167 HD
ENDBRANCH   2   4
ENDBRANCH   1   2
BRANCH   1   6
HETATM    6  N           1      30.146  34.480  27.765  0.00  0.00     0.093 N 
HETATM    7  H           1      30.633  34.390  28.674  0.00  0.00     0.314 HD
HETATM    8  H           1      30.067  35.499  27.603  0.00  0.00     0.314 HD
ENDBRANCH   1   6
BRANCH   1   9
HETATM    9  C           1      30.253  32.519  26.273  0.00  0.00     0.057 C 
BRANCH   9  10
HETATM   10  C           1      31.161  31.641  25.399  0.00  0.00     0.112 C 
BRANCH  10  11
HETATM   11  C           1      30.353  30.842  24.393  0.00  0.00     0.139 C 
HETATM   12  O           1      29.192  31.010  24.111  0.00  0.00    -0.650 OA
BRANCH  11  13
HETATM   13  O           1      31.095  29.881  23.808  0.00  0.00    -0.776 OA
HETATM   14  H           1      31.353  29.238  24.490  0.00  0.00     0.167 HD
ENDBRANCH  11  13
ENDBRANCH  10  11
ENDBRANCH   9  10
ENDBRANCH   1   9
TORSDOF 7
ENDMDL
MODEL 7
REMARK VINA RESULT:      -3.8     15.441     16.522
REMARK  7 active torsions:
REMARK  status: ('A' for Active; 'I' for Inactive)
REMARK    1  A    between atoms: C_1  and  C_3 
REMARK    2  A    between atoms: C_1  and  O_10 
REMARK    3  A    between atoms: N_2  and  C_3 
REMARK    4  A    between atoms: C_3  and  C_4 
REMARK    5  A    between atoms: C_4  and  C_5 
REMARK    6  A    between atoms: C_5  and  C_6 
REMARK    7  A    between atoms: C_6  and  O_8 
ROOT
HETATM    1  C           1      32.114  31.523  25.462  0.00  0.00     0.315 C 
ENDROOT
BRANCH   1   2
HETATM    2  C           1      32.327  31.190  26.927  0.00  0.00     0.173 C 
HETATM    3  O           1      32.418  31.987  27.830  0.00  0.00    -0.648 OA
BRANCH   2   4
HETATM    4  O           1      32.443  29.865  27.143  0.00  0.00    -0.775 OA
HETATM    5  H           1      32.168  29.683  28.055  0.00  0.00     0.167 HD
ENDBRANCH   2   4
ENDBRANCH   1   2
BRANCH   1   6
HETATM    6  N           1      33.395  31.376  24.756  0.00  0.00     0.093 N 
HETATM    7  H           1      33.340  31.781  23.806  0.00  0.00     0.314 HD
HETATM    8  H           1      34.141  31.913  25.233  0.00  0.00     0.314 HD
ENDBRANCH   1   6
BRANCH   1   9
HETATM    9  C           1      31.025  30.696  24.758  0.00  0.00     0.057 C 
BRANCH   9  10
HETATM   10  C           1      29.798  31.533  24.367  0.00  0.00     0.112 C 
BRANCH  10  11
HETATM   11  C           1      29.263  32.314  25.553  0.00  0.00     0.139 C 
HETATM   12  O           1      28.858  31.851  26.592  0.00  0.00    -0.650 OA
BRANCH  11  13
HETATM   13  O           1      29.291  33.642  25.329  0.00  0.00    -0.776 OA
HETATM   14  H           1      30.181  33.880  25.018  0.00  0.00     0.167 HD
ENDBRANCH  11  13
ENDBRANCH  10  11
ENDBRANCH   9  10
ENDBRANCH   1   9
TORSDOF 7
ENDMDL
MODEL 8
REMARK VINA RESULT:      -3.8     14.330     15.233
REMARK  7 active torsions:
REMARK  status: ('A' for Active; 'I' for Inactive)
REMARK    1  A    between atoms: C_1  and  C_3 
REMARK    2  A    between atoms: C_1  and  O_10 
REMARK    3  A    between atoms: N_2  and  C_3 
REMARK    4  A    between atoms: C_3  and  C_4 
REMARK    5  A    between atoms: C_4  and  C_5 
REMARK    6  A    between atoms: C_5  and  C_6 
REMARK    7  A    between atoms: C_6  and  O_8 
ROOT
HETATM    1  C           1      30.794  31.712  25.462  0.00  0.00     0.315 C 
ENDROOT
BRANCH   1   2
HETATM    2  C           1      29.343  32.102  25.248  0.00  0.00     0.173 C 
HETATM    3  O           1      28.732  32.932  25.877  0.00  0.00    -0.648 OA
BRANCH   2   4
HETATM    4  O           1      28.756  31.387  24.269  0.00  0.00    -0.775 OA
HETATM    5  H           1      29.356  30.664  24.024  0.00  0.00     0.167 HD
ENDBRANCH   2   4
ENDBRANCH   1   2
BRANCH   1   6
HETATM    6  N           1      31.064  30.477  24.711  0.00  0.00     0.093 N 
HETATM    7  H           1      30.181  30.038  24.396  0.00  0.00     0.314 HD
HETATM    8  H           1      31.585  30.683  23.841  0.00  0.00     0.314 HD
ENDBRANCH   1   6
BRANCH   1   9
HETATM    9  C           1      31.821  32.793  25.087  0.00  0.00     0.057 C 
BRANCH   9  10
HETATM   10  C           1      31.527  33.451  23.730  0.00  0.00     0.112 C 
BRANCH  10  11
HETATM   11  C           1      31.348  34.951  23.872  0.00  0.00     0.139 C 
HETATM   12  O           1      32.071  35.805  23.420  0.00  0.00    -0.650 OA
BRANCH  11  13
HETATM   13  O           1      30.243  35.257  24.581  0.00  0.00    -0.776 OA
HETATM   14  H           1      30.068  34.529  25.201  0.00  0.00     0.167 HD
ENDBRANCH  11  13
ENDBRANCH  10  11
ENDBRANCH   9  10
ENDBRANCH   1   9
TORSDOF 7
ENDMDL
MODEL 9
REMARK VINA RESULT:      -3.8     52.344     53.140
REMARK  7 active torsions:
REMARK  status: ('A' for Active; 'I' for Inactive)
REMARK    1  A    between atoms: C_1  and  C_3 
REMARK    2  A    between atoms: C_1  and  O_10 
REMARK    3  A    between atoms: N_2  and  C_3 
REMARK    4  A    between atoms: C_3  and  C_4 
REMARK    5  A    between atoms: C_4  and  C_5 
REMARK    6  A    between atoms: C_5  and  C_6 
REMARK    7  A    between atoms: C_6  and  O_8 
ROOT
HETATM    1  C           1      18.851   7.186  -4.931  0.00  0.00     0.315 C 
ENDROOT
BRANCH   1   2
HETATM    2  C           1      19.942   6.648  -4.024  0.00  0.00     0.173 C 
HETATM    3  O           1      20.075   6.898  -2.850  0.00  0.00    -0.648 OA
BRANCH   2   4
HETATM    4  O           1      20.811   5.853  -4.678  0.00  0.00    -0.775 OA
HETATM    5  H           1      21.058   6.294  -5.506  0.00  0.00     0.167 HD
ENDBRANCH   2   4
ENDBRANCH   1   2
BRANCH   1   6
HETATM    6  N           1      17.809   7.804  -4.098  0.00  0.00     0.093 N 
HETATM    7  H           1      17.509   7.158  -3.347  0.00  0.00     0.314 HD
HETATM    8  H           1      18.179   8.635  -3.604  0.00  0.00     0.314 HD
ENDBRANCH   1   6
BRANCH   1   9
HETATM    9  C           1      19.328   8.180  -6.004  0.00  0.00     0.057 C 
BRANCH   9  10
HETATM   10  C           1      19.523   9.601  -5.456  0.00  0.00     0.112 C 
BRANCH  10  11
HETATM   11  C           1      18.426  10.533  -5.936  0.00  0.00     0.139 C 
HETATM   12  O           1      17.245  10.290  -5.973  0.00  0.00    -0.650 OA
BRANCH  11  13
HETATM   13  O           1      18.920  11.724  -6.330  0.00  0.00    -0.776 OA
HETATM   14  H           1      19.446  11.583  -7.136  0.00  0.00     0.167 HD
ENDBRANCH  11  13
ENDBRANCH  10  11
ENDBRANCH   9  10
ENDBRANCH   1   9
TORSDOF 7
ENDMDL
