REMARK  11 active torsions:
REMARK  status: ('A' for Active; 'I' for Inactive)
REMARK    1  A    between atoms: O_2  and  B_30 
REMARK    2  A    between atoms: O_3  and  B_30 
REMARK    3  A    between atoms: N_5  and  C_13 
REMARK       I    between atoms: N_5  and  C_15 
REMARK    4  A    between atoms: N_6  and  C_14 
REMARK       I    between atoms: N_6  and  C_22 
REMARK    5  A    between atoms: C_11  and  C_12 
REMARK    6  A    between atoms: C_11  and  C_13 
REMARK    7  A    between atoms: C_13  and  B_30 
REMARK    8  A    between atoms: C_14  and  C_15 
REMARK    9  A    between atoms: C_14  and  C_16 
REMARK   10  A    between atoms: C_16  and  C_19 
REMARK   11  A    between atoms: C_22  and  C_26 
ROOT
HETATM    1  C   UNN     0       8.833  -2.207  -0.614  0.00  0.00     0.181 C 
ENDROOT
BRANCH   1   2
HETATM    2  N   UNN     0       7.587  -1.429  -0.498  0.00  0.00    -0.342 N 
HETATM    3  C   UNN     0       6.714  -1.526   0.551  0.00  0.00     0.270 C 
HETATM    4  O   UNN     0       6.936  -2.250   1.491  0.00  0.00    -0.266 OA
HETATM    5  H   UNN     0       7.367  -0.769  -1.243  0.00  0.00     0.163 HD
BRANCH   3   6
HETATM    6  C   UNN     0       5.638  -0.695   0.443  0.00  0.00     0.116 A 
HETATM    7  N   UNN     0       5.509   0.057  -0.572  0.00  0.00    -0.359 N 
HETATM    8  C   UNN     0       4.503   0.820  -0.627  0.00  0.00     0.105 A 
HETATM    9  HN  UNN     0       6.199   0.046  -1.323  1.00  0.00     0.165 HD
HETATM   10  C   UNN     0       3.582   0.847   0.349  0.00  0.00     0.104 A 
HETATM   11  N   UNN     0       3.685   0.106   1.368  0.00  0.00    -0.372 N 
HETATM   12  C   UNN     0       4.700  -0.650   1.413  0.00  0.00     0.122 A 
HETATM   13  HN  UNN     0       2.989   0.116   2.113  1.00  0.00     0.164 HD
ENDBRANCH   3   6
ENDBRANCH   1   2
BRANCH   1  14
HETATM   14  C   UNN     0       9.759  -2.086   0.600  0.00  0.00     0.240 C 
HETATM   15  O   UNN     0      10.784  -2.711   0.714  0.00  0.00    -0.271 OA
HETATM   16  N   UNN     0       9.325  -1.199   1.542  0.00  0.00    -0.358 N 
HETATM   17  H   UNN     0       8.454  -0.698   1.357  0.00  0.00     0.162 HD
BRANCH  16  18
HETATM   18  C   UNN     0       9.993  -0.961   2.825  0.00  0.00     0.111 C 
BRANCH  18  19
HETATM   19  C   UNN     0      10.919   0.258   2.724  0.00  0.00     0.024 C 
BRANCH  19  20
HETATM   20  C   UNN     0      11.568   0.708   4.047  0.00  0.00    -0.021 C 
HETATM   21  C   UNN     0      12.422   1.967   3.810  0.00  0.00     0.009 C 
HETATM   22  C   UNN     0      12.428  -0.395   4.684  0.00  0.00     0.009 C 
ENDBRANCH  19  20
ENDBRANCH  18  19
BRANCH  18  23
HETATM   23  B   UNN     0       8.749  -0.687   3.786  0.00  0.00     0.515 B 
BRANCH  23  24
HETATM   24  O   UNN     0       8.823  -0.903   5.414  0.00  0.00    -0.436 OA
HETATM   25  H   UNN     0       8.045  -0.604   5.851  0.00  0.00     0.184 HD
ENDBRANCH  23  24
BRANCH  23  26
HETATM   26  O   UNN     0       7.343  -0.168   3.107  0.00  0.00    -0.436 OA
HETATM   27  H   UNN     0       6.783  -0.888   2.856  0.00  0.00     0.184 HD
ENDBRANCH  23  26
ENDBRANCH  18  23
ENDBRANCH  16  18
ENDBRANCH   1  14
BRANCH   1  28
HETATM   28  C   UNN     0       9.570  -1.713  -1.876  0.00  0.00     0.073 C 
BRANCH  28  29
HETATM   29  C   UNN     0       9.744  -0.209  -1.793  0.00  0.00    -0.056 A 
HETATM   30  C   UNN     0       8.851   0.624  -2.358  0.00  0.00     0.007 A 
HETATM   31  C   UNN     0       8.985   1.955  -2.254  0.00  0.00     0.001 A 
HETATM   32  C   UNN     0      10.025   2.475  -1.585  0.00  0.00     0.000 A 
HETATM   33  C   UNN     0      10.929   1.657  -1.027  0.00  0.00     0.001 A 
HETATM   34  C   UNN     0      10.788   0.327  -1.136  0.00  0.00     0.007 A 
ENDBRANCH  28  29
ENDBRANCH   1  28
TORSDOF 11
