MODEL 1
REMARK VINA RESULT:      -7.9      0.000      0.000
REMARK  7 active torsions:
REMARK  status: ('A' for Active; 'I' for Inactive)
REMARK    1  A    between atoms: S_2  and  N_8 
REMARK    2  A    between atoms: S_2  and  C_14 
REMARK    3  A    between atoms: N_8  and  C_18 
REMARK    4  A    between atoms: C_13  and  C_19 
REMARK    5  A    between atoms: C_14  and  C_16 
REMARK    6  A    between atoms: C_17  and  C_19 
REMARK    7  A    between atoms: C_22  and  C_26 
ROOT
HETATM    1  N   UNN     0      35.011  30.404  -6.224  0.00  0.00    -0.351 N 
HETATM    2  N   UNN     0      32.930  30.314  -7.189  0.00  0.00    -0.351 N 
HETATM    3  HN  UNN     0      33.163  30.877  -8.007  1.00  0.00     0.166 HD
HETATM    4  C   UNN     0      33.534  29.275  -5.251  0.00  0.00     0.024 A 
HETATM    5  C   UNN     0      34.676  29.164  -4.539  0.00  0.00     0.044 A 
HETATM    6  C   UNN     0      33.802  30.042  -6.320  0.00  0.00     0.116 A 
HETATM    7  C   UNN     0      32.270  28.861  -5.064  0.00  0.00     0.030 A 
HETATM    8  C   UNN     0      35.564  29.945  -5.180  0.00  0.00     0.106 A 
HETATM    9  C   UNN     0      31.307  29.134  -5.974  0.00  0.00    -0.009 A 
HETATM   10  C   UNN     0      31.757  29.869  -7.018  0.00  0.00     0.102 A 
HETATM   11  H   UNN     0      35.488  31.027  -6.916  0.00  0.00     0.166 HD
ENDROOT
BRANCH   5  12
HETATM   12  C   UNN     0      34.969  28.494  -3.386  0.00  0.00     0.200 C 
HETATM   13  O   UNN     0      35.027  29.162  -2.369  0.00  0.00    -0.286 OA
BRANCH  12  14
HETATM   14  C   UNN     0      35.228  27.145  -3.326  0.00  0.00     0.094 A 
HETATM   15  C   UNN     0      36.465  26.643  -3.548  0.00  0.00     0.160 A 
HETATM   16  F   UNN     0      37.505  27.447  -3.731  0.00  0.00    -0.203 F 
HETATM   17  C   UNN     0      36.729  25.324  -3.476  0.00  0.00     0.082 A 
HETATM   18  C   UNN     0      35.737  24.472  -3.175  0.00  0.00     0.036 A 
HETATM   19  C   UNN     0      34.512  24.952  -2.924  0.00  0.00     0.046 A 
HETATM   20  C   UNN     0      34.257  26.268  -2.976  0.00  0.00     0.133 A 
HETATM   21  F   UNN     0      33.007  26.643  -2.746  0.00  0.00    -0.205 F 
BRANCH  17  22
HETATM   22  N   UNN     0      37.930  24.950  -3.679  0.00  0.00    -0.281 N 
HETATM   23  H   UNN     0      37.955  24.217  -4.433  0.00  0.00     0.178 HD
BRANCH  22  24
HETATM   24  S   UNN     0      38.971  24.633  -2.377  0.00  0.00     0.231 S 
HETATM   25  O   UNN     0      38.520  25.041  -1.054  0.00  0.00    -0.206 OA
HETATM   26  O   UNN     0      39.902  23.534  -2.581  0.00  0.00    -0.206 OA
BRANCH  24  27
HETATM   27  C   UNN     0      40.106  26.056  -2.744  0.00  0.00     0.163 C 
BRANCH  27  28
HETATM   28  C   UNN     0      40.911  25.873  -4.040  0.00  0.00     0.012 C 
HETATM   29  C   UNN     0      40.557  26.948  -5.075  0.00  0.00     0.006 C 
ENDBRANCH  27  28
ENDBRANCH  24  27
ENDBRANCH  22  24
ENDBRANCH  17  22
ENDBRANCH  12  14
ENDBRANCH   5  12
BRANCH   9  30
HETATM   30  C   UNN     0      30.013  28.733  -5.842  0.00  0.00    -0.025 A 
HETATM   31  C   UNN     0      28.972  29.597  -5.825  0.00  0.00     0.014 A 
HETATM   32  C   UNN     0      27.691  29.214  -5.694  0.00  0.00     0.024 A 
HETATM   33  C   UNN     0      27.387  27.917  -5.565  0.00  0.00     0.034 A 
HETATM   34 Cl   UNN     0      25.749  27.408  -5.378  0.00  0.00    -0.084 Cl
HETATM   35  C   UNN     0      28.384  27.024  -5.580  0.00  0.00     0.024 A 
HETATM   36  C   UNN     0      29.656  27.434  -5.717  0.00  0.00     0.014 A 
ENDBRANCH   9  30
TORSDOF 7
ENDMDL
MODEL 2
REMARK VINA RESULT:      -7.6      8.709     12.977
REMARK  7 active torsions:
REMARK  status: ('A' for Active; 'I' for Inactive)
REMARK    1  A    between atoms: S_2  and  N_8 
REMARK    2  A    between atoms: S_2  and  C_14 
REMARK    3  A    between atoms: N_8  and  C_18 
REMARK    4  A    between atoms: C_13  and  C_19 
REMARK    5  A    between atoms: C_14  and  C_16 
REMARK    6  A    between atoms: C_17  and  C_19 
REMARK    7  A    between atoms: C_22  and  C_26 
ROOT
HETATM    1  N   UNN     0      22.716  26.782  -5.978  0.00  0.00    -0.351 N 
HETATM    2  N   UNN     0      24.208  28.163  -4.911  0.00  0.00    -0.351 N 
HETATM    3  HN  UNN     0      23.512  28.803  -4.529  1.00  0.00     0.166 HD
HETATM    4  C   UNN     0      24.751  26.280  -6.078  0.00  0.00     0.024 A 
HETATM    5  C   UNN     0      24.057  25.327  -6.736  0.00  0.00     0.044 A 
HETATM    6  C   UNN     0      23.861  27.161  -5.593  0.00  0.00     0.116 A 
HETATM    7  C   UNN     0      26.058  26.532  -5.901  0.00  0.00     0.030 A 
HETATM    8  C   UNN     0      22.774  25.730  -6.681  0.00  0.00     0.106 A 
HETATM    9  C   UNN     0      26.469  27.598  -5.176  0.00  0.00    -0.009 A 
HETATM   10  C   UNN     0      25.444  28.351  -4.712  0.00  0.00     0.102 A 
HETATM   11  H   UNN     0      21.830  27.293  -5.758  0.00  0.00     0.166 HD
ENDROOT
BRANCH   5  12
HETATM   12  C   UNN     0      24.457  24.202  -7.397  0.00  0.00     0.200 C 
HETATM   13  O   UNN     0      24.593  23.196  -6.724  0.00  0.00    -0.286 OA
BRANCH  12  14
HETATM   14  C   UNN     0      24.741  24.160  -8.741  0.00  0.00     0.094 A 
HETATM   15  C   UNN     0      23.799  23.851  -9.663  0.00  0.00     0.160 A 
HETATM   16  F   UNN     0      22.531  23.677  -9.311  0.00  0.00    -0.203 F 
HETATM   17  C   UNN     0      24.067  23.822 -10.983  0.00  0.00     0.082 A 
HETATM   18  C   UNN     0      25.307  24.109 -11.407  0.00  0.00     0.036 A 
HETATM   19  C   UNN     0      26.247  24.445 -10.513  0.00  0.00     0.046 A 
HETATM   20  C   UNN     0      25.971  24.492  -9.201  0.00  0.00     0.133 A 
HETATM   21  F   UNN     0      26.974  24.801  -8.391  0.00  0.00    -0.205 F 
BRANCH  17  22
HETATM   22  N   UNN     0      23.108  23.544 -11.774  0.00  0.00    -0.281 N 
HETATM   23  H   UNN     0      23.392  22.763 -12.421  0.00  0.00     0.178 HD
BRANCH  22  24
HETATM   24  S   UNN     0      22.222  24.776 -12.532  0.00  0.00     0.231 S 
HETATM   25  O   UNN     0      21.311  25.545 -11.698  0.00  0.00    -0.206 OA
HETATM   26  O   UNN     0      22.824  25.320 -13.740  0.00  0.00    -0.206 OA
BRANCH  24  27
HETATM   27  C   UNN     0      20.993  23.620 -13.308  0.00  0.00     0.163 C 
BRANCH  27  28
HETATM   28  C   UNN     0      20.860  22.284 -12.562  0.00  0.00     0.012 C 
HETATM   29  C   UNN     0      19.742  22.338 -11.514  0.00  0.00     0.006 C 
ENDBRANCH  27  28
ENDBRANCH  24  27
ENDBRANCH  22  24
ENDBRANCH  17  22
ENDBRANCH  12  14
ENDBRANCH   5  12
BRANCH   9  30
HETATM   30  C   UNN     0      27.779  27.896  -4.955  0.00  0.00    -0.025 A 
HETATM   31  C   UNN     0      28.179  28.846  -4.079  0.00  0.00     0.014 A 
HETATM   32  C   UNN     0      29.468  29.152  -3.853  0.00  0.00     0.024 A 
HETATM   33  C   UNN     0      30.437  28.509  -4.514  0.00  0.00     0.034 A 
HETATM   34 Cl   UNN     0      32.097  28.901  -4.250  0.00  0.00    -0.084 Cl
HETATM   35  C   UNN     0      30.089  27.560  -5.391  0.00  0.00     0.024 A 
HETATM   36  C   UNN     0      28.793  27.270  -5.594  0.00  0.00     0.014 A 
ENDBRANCH   9  30
TORSDOF 7
ENDMDL
MODEL 3
REMARK VINA RESULT:      -7.5     22.813     24.732
REMARK  7 active torsions:
REMARK  status: ('A' for Active; 'I' for Inactive)
REMARK    1  A    between atoms: S_2  and  N_8 
REMARK    2  A    between atoms: S_2  and  C_14 
REMARK    3  A    between atoms: N_8  and  C_18 
REMARK    4  A    between atoms: C_13  and  C_19 
REMARK    5  A    between atoms: C_14  and  C_16 
REMARK    6  A    between atoms: C_17  and  C_19 
REMARK    7  A    between atoms: C_22  and  C_26 
ROOT
HETATM    1  N   UNN     0      16.588  12.133  -6.208  0.00  0.00    -0.351 N 
HETATM    2  N   UNN     0      15.777  12.861  -4.187  0.00  0.00    -0.351 N 
HETATM    3  HN  UNN     0      14.948  13.324  -4.561  1.00  0.00     0.166 HD
HETATM    4  C   UNN     0      17.658  11.604  -4.481  0.00  0.00     0.024 A 
HETATM    5  C   UNN     0      18.283  11.050  -5.542  0.00  0.00     0.044 A 
HETATM    6  C   UNN     0      16.578  12.252  -4.947  0.00  0.00     0.116 A 
HETATM    7  C   UNN     0      17.933  11.686  -3.170  0.00  0.00     0.030 A 
HETATM    8  C   UNN     0      17.585  11.464  -6.614  0.00  0.00     0.106 A 
HETATM    9  C   UNN     0      17.099  12.332  -2.323  0.00  0.00    -0.009 A 
HETATM   10  C   UNN     0      16.030  12.881  -2.947  0.00  0.00     0.102 A 
HETATM   11  H   UNN     0      15.868  12.555  -6.838  0.00  0.00     0.166 HD
ENDROOT
BRANCH   5  12
HETATM   12  C   UNN     0      19.406  10.279  -5.636  0.00  0.00     0.200 C 
HETATM   13  O   UNN     0      20.452  10.867  -5.846  0.00  0.00    -0.286 OA
BRANCH  12  14
HETATM   14  C   UNN     0      19.407   8.908  -5.542  0.00  0.00     0.094 A 
HETATM   15  C   UNN     0      19.290   8.115  -6.632  0.00  0.00     0.160 A 
HETATM   16  F   UNN     0      19.274   8.632  -7.854  0.00  0.00    -0.203 F 
HETATM   17  C   UNN     0      19.305   6.770  -6.548  0.00  0.00     0.082 A 
HETATM   18  C   UNN     0      19.440   6.190  -5.346  0.00  0.00     0.036 A 
HETATM   19  C   UNN     0      19.586   6.957  -4.258  0.00  0.00     0.046 A 
HETATM   20  C   UNN     0      19.592   8.296  -4.348  0.00  0.00     0.133 A 
HETATM   21  F   UNN     0      19.707   8.969  -3.212  0.00  0.00    -0.205 F 
BRANCH  17  22
HETATM   22  N   UNN     0      19.211   6.110  -7.633  0.00  0.00    -0.281 N 
HETATM   23  H   UNN     0      19.625   6.663  -8.427  0.00  0.00     0.178 HD
BRANCH  22  24
HETATM   24  S   UNN     0      17.775   5.300  -8.035  0.00  0.00     0.231 S 
HETATM   25  O   UNN     0      17.761   3.855  -7.867  0.00  0.00    -0.206 OA
HETATM   26  O   UNN     0      16.567   6.108  -7.964  0.00  0.00    -0.206 OA
BRANCH  24  27
HETATM   27  C   UNN     0      18.072   5.372  -9.867  0.00  0.00     0.163 C 
BRANCH  27  28
HETATM   28  C   UNN     0      18.859   6.615 -10.307  0.00  0.00     0.012 C 
HETATM   29  C   UNN     0      17.921   7.721 -10.809  0.00  0.00     0.006 C 
ENDBRANCH  27  28
ENDBRANCH  24  27
ENDBRANCH  22  24
ENDBRANCH  17  22
ENDBRANCH  12  14
ENDBRANCH   5  12
BRANCH   9  30
HETATM   30  C   UNN     0      17.322  12.438  -0.984  0.00  0.00    -0.025 A 
HETATM   31  C   UNN     0      18.518  12.798  -0.463  0.00  0.00     0.014 A 
HETATM   32  C   UNN     0      18.752  12.905   0.855  0.00  0.00     0.024 A 
HETATM   33  C   UNN     0      17.777  12.645   1.734  0.00  0.00     0.034 A 
HETATM   34 Cl   UNN     0      18.064  12.760   3.432  0.00  0.00    -0.084 Cl
HETATM   35  C   UNN     0      16.575  12.288   1.266  0.00  0.00     0.024 A 
HETATM   36  C   UNN     0      16.366  12.194  -0.058  0.00  0.00     0.014 A 
ENDBRANCH   9  30
TORSDOF 7
ENDMDL
MODEL 4
REMARK VINA RESULT:      -7.2     54.799     56.917
REMARK  7 active torsions:
REMARK  status: ('A' for Active; 'I' for Inactive)
REMARK    1  A    between atoms: S_2  and  N_8 
REMARK    2  A    between atoms: S_2  and  C_14 
REMARK    3  A    between atoms: N_8  and  C_18 
REMARK    4  A    between atoms: C_13  and  C_19 
REMARK    5  A    between atoms: C_14  and  C_16 
REMARK    6  A    between atoms: C_17  and  C_19 
REMARK    7  A    between atoms: C_22  and  C_26 
ROOT
HETATM    1  N   UNN     0      12.384  57.247  34.914  0.00  0.00    -0.351 N 
HETATM    2  N   UNN     0      13.187  57.143  37.063  0.00  0.00    -0.351 N 
HETATM    3  HN  UNN     0      14.175  57.159  36.812  1.00  0.00     0.166 HD
HETATM    4  C   UNN     0      10.984  57.228  36.477  0.00  0.00     0.024 A 
HETATM    5  C   UNN     0      10.305  57.326  35.314  0.00  0.00     0.044 A 
HETATM    6  C   UNN     0      12.293  57.211  36.177  0.00  0.00     0.116 A 
HETATM    7  C   UNN     0      10.624  57.079  37.762  0.00  0.00     0.030 A 
HETATM    8  C   UNN     0      11.248  57.282  34.355  0.00  0.00     0.106 A 
HETATM    9  C   UNN     0      11.554  57.001  38.741  0.00  0.00    -0.009 A 
HETATM   10  C   UNN     0      12.823  57.055  38.272  0.00  0.00     0.102 A 
HETATM   11  H   UNN     0      13.293  57.228  34.397  0.00  0.00     0.166 HD
ENDROOT
BRANCH   5  12
HETATM   12  C   UNN     0       8.969  57.398  35.043  0.00  0.00     0.200 C 
HETATM   13  O   UNN     0       8.509  58.513  34.871  0.00  0.00    -0.286 OA
BRANCH  12  14
HETATM   14  C   UNN     0       8.135  56.307  34.992  0.00  0.00     0.094 A 
HETATM   15  C   UNN     0       7.496  55.841  36.091  0.00  0.00     0.160 A 
HETATM   16  F   UNN     0       7.569  56.488  37.248  0.00  0.00    -0.203 F 
HETATM   17  C   UNN     0       6.666  54.781  36.045  0.00  0.00     0.082 A 
HETATM   18  C   UNN     0       6.460  54.160  34.874  0.00  0.00     0.036 A 
HETATM   19  C   UNN     0       7.060  54.623  33.769  0.00  0.00     0.046 A 
HETATM   20  C   UNN     0       7.870  55.692  33.815  0.00  0.00     0.133 A 
HETATM   21  F   UNN     0       8.446  56.053  32.677  0.00  0.00    -0.205 F 
BRANCH  17  22
HETATM   22  N   UNN     0       6.093  54.432  37.128  0.00  0.00    -0.281 N 
HETATM   23  H   UNN     0       5.878  55.282  37.710  0.00  0.00     0.178 HD
BRANCH  22  24
HETATM   24  S   UNN     0       6.665  53.111  38.025  0.00  0.00     0.231 S 
HETATM   25  O   UNN     0       5.669  52.260  38.659  0.00  0.00    -0.206 OA
HETATM   26  O   UNN     0       7.979  52.621  37.639  0.00  0.00    -0.206 OA
BRANCH  24  27
HETATM   27  C   UNN     0       7.149  54.131  39.499  0.00  0.00     0.163 C 
BRANCH  27  28
HETATM   28  C   UNN     0       8.651  54.064  39.818  0.00  0.00     0.012 C 
HETATM   29  C   UNN     0       8.920  53.210  41.064  0.00  0.00     0.006 C 
ENDBRANCH  27  28
ENDBRANCH  24  27
ENDBRANCH  22  24
ENDBRANCH  17  22
ENDBRANCH  12  14
ENDBRANCH   5  12
BRANCH   9  30
HETATM   30  C   UNN     0      11.247  56.860  40.060  0.00  0.00    -0.025 A 
HETATM   31  C   UNN     0      10.478  57.745  40.736  0.00  0.00     0.014 A 
HETATM   32  C   UNN     0      10.170  57.618  42.037  0.00  0.00     0.024 A 
HETATM   33  C   UNN     0      10.633  56.577  42.740  0.00  0.00     0.034 A 
HETATM   34 Cl   UNN     0      10.262  56.408  44.416  0.00  0.00    -0.084 Cl
HETATM   35  C   UNN     0      11.396  55.674  42.112  0.00  0.00     0.024 A 
HETATM   36  C   UNN     0      11.685  55.822  40.809  0.00  0.00     0.014 A 
ENDBRANCH   9  30
TORSDOF 7
ENDMDL
MODEL 5
REMARK VINA RESULT:      -7.0      2.015      2.320
REMARK  7 active torsions:
REMARK  status: ('A' for Active; 'I' for Inactive)
REMARK    1  A    between atoms: S_2  and  N_8 
REMARK    2  A    between atoms: S_2  and  C_14 
REMARK    3  A    between atoms: N_8  and  C_18 
REMARK    4  A    between atoms: C_13  and  C_19 
REMARK    5  A    between atoms: C_14  and  C_16 
REMARK    6  A    between atoms: C_17  and  C_19 
REMARK    7  A    between atoms: C_22  and  C_26 
ROOT
HETATM    1  N   UNN     0      34.802  28.854  -5.295  0.00  0.00    -0.351 N 
HETATM    2  N   UNN     0      32.732  29.462  -6.080  0.00  0.00    -0.351 N 
HETATM    3  HN  UNN     0      33.062  30.198  -6.705  1.00  0.00     0.166 HD
HETATM    4  C   UNN     0      33.141  27.775  -4.600  0.00  0.00     0.024 A 
HETATM    5  C   UNN     0      34.247  27.236  -4.045  0.00  0.00     0.044 A 
HETATM    6  C   UNN     0      33.543  28.774  -5.404  0.00  0.00     0.116 A 
HETATM    7  C   UNN     0      31.823  27.568  -4.452  0.00  0.00     0.030 A 
HETATM    8  C   UNN     0      35.265  27.997  -4.485  0.00  0.00     0.106 A 
HETATM    9  C   UNN     0      30.922  28.288  -5.159  0.00  0.00    -0.009 A 
HETATM   10  C   UNN     0      31.496  29.214  -5.963  0.00  0.00     0.102 A 
HETATM   11  H   UNN     0      35.385  29.560  -5.800  0.00  0.00     0.166 HD
ENDROOT
BRANCH   5  12
HETATM   12  C   UNN     0      34.415  26.197  -3.175  0.00  0.00     0.200 C 
HETATM   13  O   UNN     0      33.549  25.341  -3.179  0.00  0.00    -0.286 OA
BRANCH  12  14
HETATM   14  C   UNN     0      35.467  26.092  -2.297  0.00  0.00     0.094 A 
HETATM   15  C   UNN     0      36.571  25.365  -2.585  0.00  0.00     0.160 A 
HETATM   16  F   UNN     0      36.728  24.806  -3.778  0.00  0.00    -0.203 F 
HETATM   17  C   UNN     0      37.612  25.270  -1.734  0.00  0.00     0.082 A 
HETATM   18  C   UNN     0      37.559  25.916  -0.559  0.00  0.00     0.036 A 
HETATM   19  C   UNN     0      36.487  26.664  -0.267  0.00  0.00     0.046 A 
HETATM   20  C   UNN     0      35.462  26.772  -1.126  0.00  0.00     0.133 A 
HETATM   21  F   UNN     0      34.430  27.507  -0.733  0.00  0.00    -0.205 F 
BRANCH  17  22
HETATM   22  N   UNN     0      38.617  24.581  -2.105  0.00  0.00    -0.281 N 
HETATM   23  H   UNN     0      38.900  23.917  -1.339  0.00  0.00     0.178 HD
BRANCH  22  24
HETATM   24  S   UNN     0      39.927  25.314  -2.897  0.00  0.00     0.231 S 
HETATM   25  O   UNN     0      39.869  25.379  -4.350  0.00  0.00    -0.206 OA
HETATM   26  O   UNN     0      40.674  26.274  -2.101  0.00  0.00    -0.206 OA
BRANCH  24  27
HETATM   27  C   UNN     0      41.048  23.844  -2.720  0.00  0.00     0.163 C 
BRANCH  27  28
HETATM   28  C   UNN     0      42.523  24.167  -3.005  0.00  0.00     0.012 C 
HETATM   29  C   UNN     0      43.333  22.891  -3.271  0.00  0.00     0.006 C 
ENDBRANCH  27  28
ENDBRANCH  24  27
ENDBRANCH  22  24
ENDBRANCH  17  22
ENDBRANCH  12  14
ENDBRANCH   5  12
BRANCH   9  30
HETATM   30  C   UNN     0      29.575  28.115  -5.057  0.00  0.00    -0.025 A 
HETATM   31  C   UNN     0      28.798  28.860  -4.237  0.00  0.00     0.014 A 
HETATM   32  C   UNN     0      27.469  28.699  -4.125  0.00  0.00     0.024 A 
HETATM   33  C   UNN     0      26.843  27.758  -4.842  0.00  0.00     0.034 A 
HETATM   34 Cl   UNN     0      25.140  27.525  -4.698  0.00  0.00    -0.084 Cl
HETATM   35  C   UNN     0      27.571  26.998  -5.669  0.00  0.00     0.024 A 
HETATM   36  C   UNN     0      28.898  27.184  -5.766  0.00  0.00     0.014 A 
ENDBRANCH   9  30
TORSDOF 7
ENDMDL
MODEL 6
REMARK VINA RESULT:      -6.9     10.728     13.641
REMARK  7 active torsions:
REMARK  status: ('A' for Active; 'I' for Inactive)
REMARK    1  A    between atoms: S_2  and  N_8 
REMARK    2  A    between atoms: S_2  and  C_14 
REMARK    3  A    between atoms: N_8  and  C_18 
REMARK    4  A    between atoms: C_13  and  C_19 
REMARK    5  A    between atoms: C_14  and  C_16 
REMARK    6  A    between atoms: C_17  and  C_19 
REMARK    7  A    between atoms: C_22  and  C_26 
ROOT
HETATM    1  N   UNN     0      26.920  23.929  -9.139  0.00  0.00    -0.351 N 
HETATM    2  N   UNN     0      25.902  23.815 -11.194  0.00  0.00    -0.351 N 
HETATM    3  HN  UNN     0      26.687  23.383 -11.682  1.00  0.00     0.166 HD
HETATM    4  C   UNN     0      24.938  24.605  -9.284  0.00  0.00     0.024 A 
HETATM    5  C   UNN     0      25.325  24.729  -7.996  0.00  0.00     0.044 A 
HETATM    6  C   UNN     0      25.967  24.070  -9.961  0.00  0.00     0.116 A 
HETATM    7  C   UNN     0      23.840  24.960  -9.970  0.00  0.00     0.030 A 
HETATM    8  C   UNN     0      26.610  24.331  -7.978  0.00  0.00     0.106 A 
HETATM    9  C   UNN     0      23.734  24.705 -11.294  0.00  0.00    -0.009 A 
HETATM   10  C   UNN     0      24.836  24.111 -11.810  0.00  0.00     0.102 A 
HETATM   11  H   UNN     0      27.858  23.547  -9.397  0.00  0.00     0.166 HD
ENDROOT
BRANCH   5  12
HETATM   12  C   UNN     0      24.673  25.194  -6.890  0.00  0.00     0.200 C 
HETATM   13  O   UNN     0      25.284  25.984  -6.192  0.00  0.00    -0.286 OA
BRANCH  12  14
HETATM   14  C   UNN     0      23.410  24.798  -6.520  0.00  0.00     0.094 A 
HETATM   15  C   UNN     0      23.157  23.552  -6.058  0.00  0.00     0.160 A 
HETATM   16  F   UNN     0      24.144  22.689  -5.845  0.00  0.00    -0.203 F 
HETATM   17  C   UNN     0      21.925  23.161  -5.679  0.00  0.00     0.082 A 
HETATM   18  C   UNN     0      20.908  24.033  -5.759  0.00  0.00     0.036 A 
HETATM   19  C   UNN     0      21.142  25.280  -6.187  0.00  0.00     0.046 A 
HETATM   20  C   UNN     0      22.375  25.671  -6.543  0.00  0.00     0.133 A 
HETATM   21  F   UNN     0      22.502  26.914  -6.987  0.00  0.00    -0.205 F 
BRANCH  17  22
HETATM   22  N   UNN     0      21.791  21.975  -5.236  0.00  0.00    -0.281 N 
HETATM   23  H   UNN     0      22.735  21.569  -5.006  0.00  0.00     0.178 HD
BRANCH  22  24
HETATM   24  S   UNN     0      20.738  20.879  -5.991  0.00  0.00     0.231 S 
HETATM   25  O   UNN     0      20.482  19.624  -5.300  0.00  0.00    -0.206 OA
HETATM   26  O   UNN     0      19.783  21.474  -6.913  0.00  0.00    -0.206 OA
BRANCH  24  27
HETATM   27  C   UNN     0      21.999  20.280  -7.215  0.00  0.00     0.163 C 
BRANCH  27  28
HETATM   28  C   UNN     0      21.626  20.589  -8.673  0.00  0.00     0.012 C 
HETATM   29  C   UNN     0      22.400  21.803  -9.203  0.00  0.00     0.006 C 
ENDBRANCH  27  28
ENDBRANCH  24  27
ENDBRANCH  22  24
ENDBRANCH  17  22
ENDBRANCH  12  14
ENDBRANCH   5  12
BRANCH   9  30
HETATM   30  C   UNN     0      22.642  25.032 -12.038  0.00  0.00    -0.025 A 
HETATM   31  C   UNN     0      22.544  26.190 -12.732  0.00  0.00     0.014 A 
HETATM   32  C   UNN     0      21.472  26.526 -13.468  0.00  0.00     0.024 A 
HETATM   33  C   UNN     0      20.420  25.701 -13.539  0.00  0.00     0.034 A 
HETATM   34 Cl   UNN     0      19.026  26.124 -14.464  0.00  0.00    -0.084 Cl
HETATM   35  C   UNN     0      20.472  24.543 -12.870  0.00  0.00     0.024 A 
HETATM   36  C   UNN     0      21.559  24.229 -12.146  0.00  0.00     0.014 A 
ENDBRANCH   9  30
TORSDOF 7
ENDMDL
MODEL 7
REMARK VINA RESULT:      -6.8      3.193      5.467
REMARK  7 active torsions:
REMARK  status: ('A' for Active; 'I' for Inactive)
REMARK    1  A    between atoms: S_2  and  N_8 
REMARK    2  A    between atoms: S_2  and  C_14 
REMARK    3  A    between atoms: N_8  and  C_18 
REMARK    4  A    between atoms: C_13  and  C_19 
REMARK    5  A    between atoms: C_14  and  C_16 
REMARK    6  A    between atoms: C_17  and  C_19 
REMARK    7  A    between atoms: C_22  and  C_26 
ROOT
HETATM    1  N   UNN     0      29.185  30.492  -3.483  0.00  0.00    -0.351 N 
HETATM    2  N   UNN     0      27.324  29.147  -3.519  0.00  0.00    -0.351 N 
HETATM    3  HN  UNN     0      26.946  29.458  -2.625  1.00  0.00     0.166 HD
HETATM    4  C   UNN     0      28.892  29.278  -5.170  0.00  0.00     0.024 A 
HETATM    5  C   UNN     0      30.014  30.003  -5.371  0.00  0.00     0.044 A 
HETATM    6  C   UNN     0      28.389  29.641  -3.980  0.00  0.00     0.116 A 
HETATM    7  C   UNN     0      28.282  28.290  -5.845  0.00  0.00     0.030 A 
HETATM    8  C   UNN     0      30.174  30.717  -4.242  0.00  0.00     0.106 A 
HETATM    9  C   UNN     0      27.140  27.733  -5.382  0.00  0.00    -0.009 A 
HETATM   10  C   UNN     0      26.738  28.253  -4.198  0.00  0.00     0.102 A 
HETATM   11  H   UNN     0      29.049  30.937  -2.547  0.00  0.00     0.166 HD
ENDROOT
BRANCH   5  12
HETATM   12  C   UNN     0      30.897  30.043  -6.411  0.00  0.00     0.200 C 
HETATM   13  O   UNN     0      30.426  29.927  -7.529  0.00  0.00    -0.286 OA
BRANCH  12  14
HETATM   14  C   UNN     0      32.257  30.170  -6.260  0.00  0.00     0.094 A 
HETATM   15  C   UNN     0      33.010  29.194  -5.701  0.00  0.00     0.160 A 
HETATM   16  F   UNN     0      32.476  28.025  -5.370  0.00  0.00    -0.203 F 
HETATM   17  C   UNN     0      34.346  29.306  -5.562  0.00  0.00     0.082 A 
HETATM   18  C   UNN     0      34.958  30.420  -5.991  0.00  0.00     0.036 A 
HETATM   19  C   UNN     0      34.235  31.386  -6.573  0.00  0.00     0.046 A 
HETATM   20  C   UNN     0      32.908  31.262  -6.728  0.00  0.00     0.133 A 
HETATM   21  F   UNN     0      32.274  32.286  -7.283  0.00  0.00    -0.205 F 
BRANCH  17  22
HETATM   22  N   UNN     0      34.970  28.324  -5.045  0.00  0.00    -0.281 N 
HETATM   23  H   UNN     0      34.316  27.508  -4.921  0.00  0.00     0.178 HD
BRANCH  22  24
HETATM   24  S   UNN     0      36.031  28.559  -3.743  0.00  0.00     0.231 S 
HETATM   25  O   UNN     0      37.450  28.361  -4.000  0.00  0.00    -0.206 OA
HETATM   26  O   UNN     0      35.543  29.445  -2.697  0.00  0.00    -0.206 OA
BRANCH  24  27
HETATM   27  C   UNN     0      35.655  26.924  -2.947  0.00  0.00     0.163 C 
BRANCH  27  28
HETATM   28  C   UNN     0      35.047  25.901  -3.918  0.00  0.00     0.012 C 
HETATM   29  C   UNN     0      35.469  24.470  -3.558  0.00  0.00     0.006 C 
ENDBRANCH  27  28
ENDBRANCH  24  27
ENDBRANCH  22  24
ENDBRANCH  17  22
ENDBRANCH  12  14
ENDBRANCH   5  12
BRANCH   9  30
HETATM   30  C   UNN     0      26.474  26.737  -6.028  0.00  0.00    -0.025 A 
HETATM   31  C   UNN     0      25.134  26.570  -5.940  0.00  0.00     0.014 A 
HETATM   32  C   UNN     0      24.465  25.591  -6.570  0.00  0.00     0.024 A 
HETATM   33  C   UNN     0      25.123  24.709  -7.332  0.00  0.00     0.034 A 
HETATM   34 Cl   UNN     0      24.282  23.433  -8.134  0.00  0.00    -0.084 Cl
HETATM   35  C   UNN     0      26.450  24.836  -7.451  0.00  0.00     0.024 A 
HETATM   36  C   UNN     0      27.094  25.827  -6.814  0.00  0.00     0.014 A 
ENDBRANCH   9  30
TORSDOF 7
ENDMDL
MODEL 8
REMARK VINA RESULT:      -6.8     31.673     33.430
REMARK  7 active torsions:
REMARK  status: ('A' for Active; 'I' for Inactive)
REMARK    1  A    between atoms: S_2  and  N_8 
REMARK    2  A    between atoms: S_2  and  C_14 
REMARK    3  A    between atoms: N_8  and  C_18 
REMARK    4  A    between atoms: C_13  and  C_19 
REMARK    5  A    between atoms: C_14  and  C_16 
REMARK    6  A    between atoms: C_17  and  C_19 
REMARK    7  A    between atoms: C_22  and  C_26 
ROOT
HETATM    1  N   UNN     0      23.993  25.590  27.608  0.00  0.00    -0.351 N 
HETATM    2  N   UNN     0      24.790  23.663  26.647  0.00  0.00    -0.351 N 
HETATM    3  HN  UNN     0      25.274  23.318  27.476  1.00  0.00     0.166 HD
HETATM    4  C   UNN     0      23.462  25.203  25.614  0.00  0.00     0.024 A 
HETATM    5  C   UNN     0      22.865  26.356  25.986  0.00  0.00     0.044 A 
HETATM    6  C   UNN     0      24.139  24.742  26.678  0.00  0.00     0.116 A 
HETATM    7  C   UNN     0      23.560  24.531  24.456  0.00  0.00     0.030 A 
HETATM    8  C   UNN     0      23.282  26.574  27.246  0.00  0.00     0.106 A 
HETATM    9  C   UNN     0      24.252  23.370  24.382  0.00  0.00    -0.009 A 
HETATM   10  C   UNN     0      24.826  23.019  25.557  0.00  0.00     0.102 A 
HETATM   11  H   UNN     0      24.428  25.496  28.554  0.00  0.00     0.166 HD
ENDROOT
BRANCH   5  12
HETATM   12  C   UNN     0      22.053  27.220  25.309  0.00  0.00     0.200 C 
HETATM   13  O   UNN     0      22.562  27.837  24.390  0.00  0.00    -0.286 OA
BRANCH  12  14
HETATM   14  C   UNN     0      20.735  27.447  25.628  0.00  0.00     0.094 A 
HETATM   15  C   UNN     0      20.343  28.546  26.311  0.00  0.00     0.160 A 
HETATM   16  F   UNN     0      21.207  29.508  26.611  0.00  0.00    -0.203 F 
HETATM   17  C   UNN     0      19.051  28.782  26.615  0.00  0.00     0.082 A 
HETATM   18  C   UNN     0      18.116  27.900  26.230  0.00  0.00     0.036 A 
HETATM   19  C   UNN     0      18.481  26.819  25.528  0.00  0.00     0.046 A 
HETATM   20  C   UNN     0      19.765  26.599  25.210  0.00  0.00     0.133 A 
HETATM   21  F   UNN     0      20.032  25.484  24.543  0.00  0.00    -0.205 F 
BRANCH  17  22
HETATM   22  N   UNN     0      18.778  29.857  27.241  0.00  0.00    -0.281 N 
HETATM   23  H   UNN     0      19.497  30.593  27.021  0.00  0.00     0.178 HD
BRANCH  22  24
HETATM   24  S   UNN     0      18.313  29.818  28.873  0.00  0.00     0.231 S 
HETATM   25  O   UNN     0      17.194  30.662  29.263  0.00  0.00    -0.206 OA
HETATM   26  O   UNN     0      18.657  28.597  29.586  0.00  0.00    -0.206 OA
BRANCH  24  27
HETATM   27  C   UNN     0      19.706  30.901  29.450  0.00  0.00     0.163 C 
BRANCH  27  28
HETATM   28  C   UNN     0      19.568  32.363  28.996  0.00  0.00     0.012 C 
HETATM   29  C   UNN     0      20.790  32.813  28.184  0.00  0.00     0.006 C 
ENDBRANCH  27  28
ENDBRANCH  24  27
ENDBRANCH  22  24
ENDBRANCH  17  22
ENDBRANCH  12  14
ENDBRANCH   5  12
BRANCH   9  30
HETATM   30  C   UNN     0      24.377  22.642  23.239  0.00  0.00    -0.025 A 
HETATM   31  C   UNN     0      25.123  21.515  23.162  0.00  0.00     0.014 A 
HETATM   32  C   UNN     0      25.257  20.788  22.041  0.00  0.00     0.024 A 
HETATM   33  C   UNN     0      24.640  21.168  20.916  0.00  0.00     0.034 A 
HETATM   34 Cl   UNN     0      24.815  20.257  19.461  0.00  0.00    -0.084 Cl
HETATM   35  C   UNN     0      23.888  22.276  20.944  0.00  0.00     0.024 A 
HETATM   36  C   UNN     0      23.768  22.981  22.080  0.00  0.00     0.014 A 
ENDBRANCH   9  30
TORSDOF 7
ENDMDL
MODEL 9
REMARK VINA RESULT:      -6.7     22.857     24.782
REMARK  7 active torsions:
REMARK  status: ('A' for Active; 'I' for Inactive)
REMARK    1  A    between atoms: S_2  and  N_8 
REMARK    2  A    between atoms: S_2  and  C_14 
REMARK    3  A    between atoms: N_8  and  C_18 
REMARK    4  A    between atoms: C_13  and  C_19 
REMARK    5  A    between atoms: C_14  and  C_16 
REMARK    6  A    between atoms: C_17  and  C_19 
REMARK    7  A    between atoms: C_22  and  C_26 
ROOT
HETATM    1  N   UNN     0      13.969  12.681  -6.146  0.00  0.00    -0.351 N 
HETATM    2  N   UNN     0      13.939  12.889  -3.860  0.00  0.00    -0.351 N 
HETATM    3  HN  UNN     0      12.946  13.108  -3.782  1.00  0.00     0.166 HD
HETATM    4  C   UNN     0      15.760  12.324  -5.112  0.00  0.00     0.024 A 
HETATM    5  C   UNN     0      15.992  12.116  -6.426  0.00  0.00     0.044 A 
HETATM    6  C   UNN     0      14.464  12.650  -4.981  0.00  0.00     0.116 A 
HETATM    7  C   UNN     0      16.535  12.341  -4.015  0.00  0.00     0.030 A 
HETATM    8  C   UNN     0      14.829  12.408  -7.036  0.00  0.00     0.106 A 
HETATM    9  C   UNN     0      16.008  12.594  -2.795  0.00  0.00    -0.009 A 
HETATM   10  C   UNN     0      14.679  12.848  -2.834  0.00  0.00     0.102 A 
HETATM   11  H   UNN     0      12.973  12.926  -6.348  0.00  0.00     0.166 HD
ENDROOT
BRANCH   5  12
HETATM   12  C   UNN     0      17.119  11.750  -7.105  0.00  0.00     0.200 C 
HETATM   13  O   UNN     0      17.569  12.566  -7.889  0.00  0.00    -0.286 OA
BRANCH  12  14
HETATM   14  C   UNN     0      17.731  10.526  -6.974  0.00  0.00     0.094 A 
HETATM   15  C   UNN     0      17.353   9.454  -7.707  0.00  0.00     0.160 A 
HETATM   16  F   UNN     0      16.439   9.569  -8.663  0.00  0.00    -0.203 F 
HETATM   17  C   UNN     0      17.958   8.256  -7.595  0.00  0.00     0.082 A 
HETATM   18  C   UNN     0      18.973   8.113  -6.729  0.00  0.00     0.036 A 
HETATM   19  C   UNN     0      19.382   9.169  -6.014  0.00  0.00     0.046 A 
HETATM   20  C   UNN     0      18.789  10.366  -6.144  0.00  0.00     0.133 A 
HETATM   21  F   UNN     0      19.241  11.343  -5.369  0.00  0.00    -0.205 F 
BRANCH  17  22
HETATM   22  N   UNN     0      17.546   7.313  -8.345  0.00  0.00    -0.281 N 
HETATM   23  H   UNN     0      17.116   6.551  -7.760  0.00  0.00     0.178 HD
BRANCH  22  24
HETATM   24  S   UNN     0      18.502   6.740  -9.624  0.00  0.00     0.231 S 
HETATM   25  O   UNN     0      19.658   7.542  -9.998  0.00  0.00    -0.206 OA
HETATM   26  O   UNN     0      18.442   5.303  -9.848  0.00  0.00    -0.206 OA
BRANCH  24  27
HETATM   27  C   UNN     0      17.327   7.296 -10.950  0.00  0.00     0.163 C 
BRANCH  27  28
HETATM   28  C   UNN     0      17.801   8.553 -11.695  0.00  0.00     0.012 C 
HETATM   29  C   UNN     0      18.227   8.224 -13.131  0.00  0.00     0.006 C 
ENDBRANCH  27  28
ENDBRANCH  24  27
ENDBRANCH  22  24
ENDBRANCH  17  22
ENDBRANCH  12  14
ENDBRANCH   5  12
BRANCH   9  30
HETATM   30  C   UNN     0      16.743  12.614  -1.649  0.00  0.00    -0.025 A 
HETATM   31  C   UNN     0      16.193  12.479  -0.420  0.00  0.00     0.014 A 
HETATM   32  C   UNN     0      16.906  12.499   0.718  0.00  0.00     0.024 A 
HETATM   33  C   UNN     0      18.234  12.666   0.677  0.00  0.00     0.034 A 
HETATM   34 Cl   UNN     0      19.163  12.713   2.130  0.00  0.00    -0.084 Cl
HETATM   35  C   UNN     0      18.822  12.801  -0.517  0.00  0.00     0.024 A 
HETATM   36  C   UNN     0      18.087  12.772  -1.640  0.00  0.00     0.014 A 
ENDBRANCH   9  30
TORSDOF 7
ENDMDL
