REMARK  6 active torsions:
REMARK  status: ('A' for Active; 'I' for Inactive)
REMARK    1  A    between atoms: C_1  and  C_3 
REMARK    2  A    between atoms: C_1  and  O_9 
REMARK    3  A    between atoms: N_2  and  C_3 
REMARK    4  A    between atoms: C_3  and  C_4 
REMARK    5  A    between atoms: C_4  and  C_5 
REMARK    6  A    between atoms: C_5  and  O_7 
ROOT
HETATM    1  C           1      -0.352  -0.782   0.234  0.00  0.00     0.324 C 
ENDROOT
BRANCH   1   2
HETATM    2  C           1      -1.392   0.300   0.463  0.00  0.00     0.174 C 
HETATM    3  O           1      -2.302   0.234   1.254  0.00  0.00    -0.648 OA
BRANCH   2   4
HETATM    4  O           1      -1.215   1.379  -0.322  0.00  0.00    -0.775 OA
HETATM    5  H           1      -1.919   2.020  -0.133  0.00  0.00     0.167 HD
ENDBRANCH   2   4
ENDBRANCH   1   2
BRANCH   1   6
HETATM    6  N           1      -1.053  -1.999  -0.205  0.00  0.00     0.093 N 
HETATM    7  H           1      -0.404  -2.803  -0.258  0.00  0.00     0.314 HD
HETATM    8  H           1      -1.770  -2.275   0.488  0.00  0.00     0.314 HD
ENDBRANCH   1   6
BRANCH   1   9
HETATM    9  C           1       0.773  -0.458  -0.766  0.00  0.00     0.156 C 
BRANCH   9  10
HETATM   10  C           1       1.628   0.757  -0.454  0.00  0.00     0.141 C 
HETATM   11  O           1       2.238   1.426  -1.253  0.00  0.00    -0.650 OA
BRANCH  10  12
HETATM   12  O           1       1.665   1.031   0.864  0.00  0.00    -0.776 OA
HETATM   13  H           1       2.221   1.815   1.000  0.00  0.00     0.167 HD
ENDBRANCH  10  12
ENDBRANCH   9  10
ENDBRANCH   1   9
TORSDOF 6
