MODEL 1
REMARK VINA RESULT:      -5.9      0.000      0.000
REMARK  12 active torsions:
REMARK  status: ('A' for Active; 'I' for Inactive)
REMARK    1  A    between atoms: O_3  and  C_19 
REMARK    2  A    between atoms: O_4  and  C_20 
REMARK    3  A    between atoms: N_7  and  C_11 
REMARK    4  A    between atoms: N_7  and  C_14 
REMARK    5  A    between atoms: N_8  and  C_21 
REMARK    6  A    between atoms: C_11  and  C_12 
REMARK    7  A    between atoms: C_11  and  C_19 
REMARK    8  A    between atoms: C_12  and  C_13 
REMARK    9  A    between atoms: C_14  and  C_15 
REMARK   10  A    between atoms: C_14  and  C_20 
REMARK   11  A    between atoms: C_15  and  C_16 
REMARK   12  A    between atoms: C_21  and  C_24 
ROOT
HETATM    1  C   UNN     0     -21.275   1.999  10.902  0.00  0.00     0.323 C 
ENDROOT
BRANCH   1   2
HETATM    2  N   UNN     0     -20.096   1.135  10.801  0.00  0.00     0.113 N 
HETATM    3  H   UNN     0     -19.411   1.405  11.551  0.00  0.00     0.318 HD
BRANCH   2   4
HETATM    4  C   UNN     0     -20.353  -0.305  10.904  0.00  0.00     0.318 C 
BRANCH   4   5
HETATM    5  C   UNN     0     -19.483  -1.059   9.881  0.00  0.00     0.050 C 
BRANCH   5   6
HETATM    6  C   UNN     0     -19.908  -2.518   9.610  0.00  0.00    -0.020 C 
HETATM    7  C   UNN     0     -20.245  -2.698   8.119  0.00  0.00     0.009 C 
HETATM    8  C   UNN     0     -18.834  -3.534  10.032  0.00  0.00     0.009 C 
ENDBRANCH   5   6
ENDBRANCH   4   5
BRANCH   4   9
HETATM    9  C   UNN     0     -20.028  -0.791  12.308  0.00  0.00     0.174 C 
HETATM   10  O   UNN     0     -20.595  -1.686  12.887  0.00  0.00    -0.648 OA
BRANCH   9  11
HETATM   11  O   UNN     0     -19.007  -0.109  12.860  0.00  0.00    -0.775 OA
HETATM   12  H   UNN     0     -18.664  -0.620  13.610  0.00  0.00     0.167 HD
ENDBRANCH   9  11
ENDBRANCH   4   9
ENDBRANCH   2   4
ENDBRANCH   1   2
BRANCH   1  13
HETATM   13  C   UNN     0     -21.137   2.901  12.143  0.00  0.00     0.105 C 
BRANCH  13  14
HETATM   14  C   UNN     0     -22.251   2.659  13.123  0.00  0.00     0.030 A 
HETATM   15  N   UNN     0     -23.178   3.400  13.572  0.00  0.00    -0.341 N 
HETATM   16  C   UNN     0     -23.915   2.784  14.396  0.00  0.00     0.183 A 
HETATM   17  N   UNN     0     -23.504   1.596  14.540  0.00  0.00    -0.360 N 
HETATM   18  C   UNN     0     -22.497   1.507  13.774  0.00  0.00     0.114 A 
HETATM   19  HN  UNN     0     -23.896   0.870  15.139  1.00  0.00     0.166 HD
BRANCH  15  20
HETATM   20  C   UNN     0     -23.411   4.802  13.191  0.00  0.00     0.168 C 
BRANCH  20  21
HETATM   21  C   UNN     0     -22.894   5.740  14.262  0.00  0.00    -0.037 A 
HETATM   22  C   UNN     0     -23.737   6.572  14.900  0.00  0.00     0.032 A 
HETATM   23  C   UNN     0     -23.299   7.409  15.852  0.00  0.00     0.036 A 
HETATM   24 Cl   UNN     0     -24.416   8.458  16.650  0.00  0.00    -0.084 Cl
HETATM   25  C   UNN     0     -21.998   7.427  16.182  0.00  0.00     0.047 A 
HETATM   26  C   UNN     0     -21.146   6.604  15.551  0.00  0.00     0.036 A 
HETATM   27 Cl   UNN     0     -19.468   6.619  15.965  0.00  0.00    -0.084 Cl
HETATM   28  C   UNN     0     -21.593   5.767  14.600  0.00  0.00     0.032 A 
ENDBRANCH  20  21
ENDBRANCH  15  20
ENDBRANCH  13  14
ENDBRANCH   1  13
BRANCH   1  29
HETATM   29  C   UNN     0     -21.441   2.824   9.635  0.00  0.00     0.174 C 
HETATM   30  O   UNN     0     -22.308   3.632   9.406  0.00  0.00    -0.648 OA
BRANCH  29  31
HETATM   31  O   UNN     0     -20.483   2.541   8.730  0.00  0.00    -0.775 OA
HETATM   32  H   UNN     0     -20.709   1.708   8.286  0.00  0.00     0.167 HD
ENDBRANCH  29  31
ENDBRANCH   1  29
TORSDOF 12
ENDMDL
MODEL 2
REMARK VINA RESULT:      -5.7     11.352     14.121
REMARK  12 active torsions:
REMARK  status: ('A' for Active; 'I' for Inactive)
REMARK    1  A    between atoms: O_3  and  C_19 
REMARK    2  A    between atoms: O_4  and  C_20 
REMARK    3  A    between atoms: N_7  and  C_11 
REMARK    4  A    between atoms: N_7  and  C_14 
REMARK    5  A    between atoms: N_8  and  C_21 
REMARK    6  A    between atoms: C_11  and  C_12 
REMARK    7  A    between atoms: C_11  and  C_19 
REMARK    8  A    between atoms: C_12  and  C_13 
REMARK    9  A    between atoms: C_14  and  C_15 
REMARK   10  A    between atoms: C_14  and  C_20 
REMARK   11  A    between atoms: C_15  and  C_16 
REMARK   12  A    between atoms: C_21  and  C_24 
ROOT
HETATM    1  C   UNN     0     -16.847   7.839   4.943  0.00  0.00     0.323 C 
ENDROOT
BRANCH   1   2
HETATM    2  N   UNN     0     -18.075   8.066   5.708  0.00  0.00     0.113 N 
HETATM    3  H   UNN     0     -17.919   7.759   6.701  0.00  0.00     0.318 HD
BRANCH   2   4
HETATM    4  C   UNN     0     -18.570   9.446   5.721  0.00  0.00     0.318 C 
BRANCH   4   5
HETATM    5  C   UNN     0     -19.803   9.561   4.805  0.00  0.00     0.050 C 
BRANCH   5   6
HETATM    6  C   UNN     0     -19.701  10.634   3.701  0.00  0.00    -0.020 C 
HETATM    7  C   UNN     0     -19.881   9.983   2.317  0.00  0.00     0.009 C 
HETATM    8  C   UNN     0     -20.721  11.770   3.883  0.00  0.00     0.009 C 
ENDBRANCH   5   6
ENDBRANCH   4   5
BRANCH   4   9
HETATM    9  C   UNN     0     -18.948   9.848   7.138  0.00  0.00     0.174 C 
HETATM   10  O   UNN     0     -19.927  10.483   7.447  0.00  0.00    -0.648 OA
BRANCH   9  11
HETATM   11  O   UNN     0     -18.060   9.406   8.049  0.00  0.00    -0.775 OA
HETATM   12  H   UNN     0     -17.204   9.828   7.874  0.00  0.00     0.167 HD
ENDBRANCH   9  11
ENDBRANCH   4   9
ENDBRANCH   2   4
ENDBRANCH   1   2
BRANCH   1  13
HETATM   13  C   UNN     0     -16.625   9.020   3.981  0.00  0.00     0.105 C 
BRANCH  13  14
HETATM   14  C   UNN     0     -15.966   8.573   2.705  0.00  0.00     0.030 A 
HETATM   15  N   UNN     0     -15.356   9.201   1.786  0.00  0.00    -0.341 N 
HETATM   16  C   UNN     0     -14.948   8.421   0.875  0.00  0.00     0.183 A 
HETATM   17  N   UNN     0     -15.278   7.230   1.147  0.00  0.00    -0.360 N 
HETATM   18  C   UNN     0     -15.894   7.308   2.252  0.00  0.00     0.114 A 
HETATM   19  HN  UNN     0     -15.089   6.392   0.597  1.00  0.00     0.166 HD
BRANCH  15  20
HETATM   20  C   UNN     0     -15.115  10.651   1.756  0.00  0.00     0.168 C 
BRANCH  20  21
HETATM   21  C   UNN     0     -16.317  11.381   1.193  0.00  0.00    -0.037 A 
HETATM   22  C   UNN     0     -16.827  11.028  -0.000  0.00  0.00     0.032 A 
HETATM   23  C   UNN     0     -17.892  11.660  -0.516  0.00  0.00     0.036 A 
HETATM   24 Cl   UNN     0     -18.519  11.172  -2.050  0.00  0.00    -0.084 Cl
HETATM   25  C   UNN     0     -18.466  12.667   0.161  0.00  0.00     0.047 A 
HETATM   26  C   UNN     0     -17.965  13.031   1.352  0.00  0.00     0.036 A 
HETATM   27 Cl   UNN     0     -18.694  14.327   2.232  0.00  0.00    -0.084 Cl
HETATM   28  C   UNN     0     -16.900  12.391   1.863  0.00  0.00     0.032 A 
ENDBRANCH  20  21
ENDBRANCH  15  20
ENDBRANCH  13  14
ENDBRANCH   1  13
BRANCH   1  29
HETATM   29  C   UNN     0     -15.662   7.657   5.879  0.00  0.00     0.174 C 
HETATM   30  O   UNN     0     -14.718   6.922   5.717  0.00  0.00    -0.648 OA
BRANCH  29  31
HETATM   31  O   UNN     0     -15.776   8.426   6.979  0.00  0.00    -0.775 OA
HETATM   32  H   UNN     0     -15.690   7.861   7.764  0.00  0.00     0.167 HD
ENDBRANCH  29  31
ENDBRANCH   1  29
TORSDOF 12
ENDMDL
MODEL 3
REMARK VINA RESULT:      -5.7     15.806     17.999
REMARK  12 active torsions:
REMARK  status: ('A' for Active; 'I' for Inactive)
REMARK    1  A    between atoms: O_3  and  C_19 
REMARK    2  A    between atoms: O_4  and  C_20 
REMARK    3  A    between atoms: N_7  and  C_11 
REMARK    4  A    between atoms: N_7  and  C_14 
REMARK    5  A    between atoms: N_8  and  C_21 
REMARK    6  A    between atoms: C_11  and  C_12 
REMARK    7  A    between atoms: C_11  and  C_19 
REMARK    8  A    between atoms: C_12  and  C_13 
REMARK    9  A    between atoms: C_14  and  C_15 
REMARK   10  A    between atoms: C_14  and  C_20 
REMARK   11  A    between atoms: C_15  and  C_16 
REMARK   12  A    between atoms: C_21  and  C_24 
ROOT
HETATM    1  C   UNN     0     -21.111  -2.400  30.819  0.00  0.00     0.323 C 
ENDROOT
BRANCH   1   2
HETATM    2  N   UNN     0     -20.008  -3.353  30.974  0.00  0.00     0.113 N 
HETATM    3  H   UNN     0     -19.911  -3.906  30.086  0.00  0.00     0.318 HD
BRANCH   2   4
HETATM    4  C   UNN     0     -18.704  -2.767  31.303  0.00  0.00     0.318 C 
BRANCH   4   5
HETATM    5  C   UNN     0     -18.806  -1.231  31.275  0.00  0.00     0.050 C 
BRANCH   5   6
HETATM    6  C   UNN     0     -17.845  -0.529  30.293  0.00  0.00    -0.020 C 
HETATM    7  C   UNN     0     -16.464  -0.347  30.948  0.00  0.00     0.009 C 
HETATM    8  C   UNN     0     -17.699  -1.290  28.965  0.00  0.00     0.009 C 
ENDBRANCH   5   6
ENDBRANCH   4   5
BRANCH   4   9
HETATM    9  C   UNN     0     -18.266  -3.225  32.686  0.00  0.00     0.174 C 
HETATM   10  O   UNN     0     -17.649  -2.557  33.480  0.00  0.00    -0.648 OA
BRANCH   9  11
HETATM   11  O   UNN     0     -18.651  -4.487  32.952  0.00  0.00    -0.775 OA
HETATM   12  H   UNN     0     -19.621  -4.515  32.980  0.00  0.00     0.167 HD
ENDBRANCH   9  11
ENDBRANCH   4   9
ENDBRANCH   2   4
ENDBRANCH   1   2
BRANCH   1  13
HETATM   13  C   UNN     0     -21.713  -2.547  29.410  0.00  0.00     0.105 C 
BRANCH  13  14
HETATM   14  C   UNN     0     -21.368  -1.371  28.540  0.00  0.00     0.030 A 
HETATM   15  N   UNN     0     -20.933  -1.278  27.351  0.00  0.00    -0.341 N 
HETATM   16  C   UNN     0     -20.779  -0.071  27.000  0.00  0.00     0.183 A 
HETATM   17  N   UNN     0     -21.102   0.699  27.949  0.00  0.00    -0.360 N 
HETATM   18  C   UNN     0     -21.461  -0.074  28.887  0.00  0.00     0.114 A 
HETATM   19  HN  UNN     0     -21.079   1.719  27.959  1.00  0.00     0.166 HD
BRANCH  15  20
HETATM   20  C   UNN     0     -20.648  -2.409  26.455  0.00  0.00     0.168 C 
BRANCH  20  21
HETATM   21  C   UNN     0     -21.715  -2.525  25.386  0.00  0.00    -0.037 A 
HETATM   22  C   UNN     0     -21.471  -2.098  24.135  0.00  0.00     0.032 A 
HETATM   23  C   UNN     0     -22.402  -2.194  23.173  0.00  0.00     0.036 A 
HETATM   24 Cl   UNN     0     -22.046  -1.636  21.577  0.00  0.00    -0.084 Cl
HETATM   25  C   UNN     0     -23.603  -2.722  23.454  0.00  0.00     0.047 A 
HETATM   26  C   UNN     0     -23.861  -3.150  24.701  0.00  0.00     0.036 A 
HETATM   27 Cl   UNN     0     -25.404  -3.830  25.075  0.00  0.00    -0.084 Cl
HETATM   28  C   UNN     0     -22.922  -3.053  25.657  0.00  0.00     0.032 A 
ENDBRANCH  20  21
ENDBRANCH  15  20
ENDBRANCH  13  14
ENDBRANCH   1  13
BRANCH   1  29
HETATM   29  C   UNN     0     -22.161  -2.622  31.897  0.00  0.00     0.174 C 
HETATM   30  O   UNN     0     -22.581  -1.803  32.678  0.00  0.00    -0.648 OA
BRANCH  29  31
HETATM   31  O   UNN     0     -22.596  -3.897  31.910  0.00  0.00    -0.775 OA
HETATM   32  H   UNN     0     -23.566  -3.895  31.959  0.00  0.00     0.167 HD
ENDBRANCH  29  31
ENDBRANCH   1  29
TORSDOF 12
ENDMDL
MODEL 4
REMARK VINA RESULT:      -5.6      6.067      9.179
REMARK  12 active torsions:
REMARK  status: ('A' for Active; 'I' for Inactive)
REMARK    1  A    between atoms: O_3  and  C_19 
REMARK    2  A    between atoms: O_4  and  C_20 
REMARK    3  A    between atoms: N_7  and  C_11 
REMARK    4  A    between atoms: N_7  and  C_14 
REMARK    5  A    between atoms: N_8  and  C_21 
REMARK    6  A    between atoms: C_11  and  C_12 
REMARK    7  A    between atoms: C_11  and  C_19 
REMARK    8  A    between atoms: C_12  and  C_13 
REMARK    9  A    between atoms: C_14  and  C_15 
REMARK   10  A    between atoms: C_14  and  C_20 
REMARK   11  A    between atoms: C_15  and  C_16 
REMARK   12  A    between atoms: C_21  and  C_24 
ROOT
HETATM    1  C   UNN     0     -19.121  -2.032   9.827  0.00  0.00     0.323 C 
ENDROOT
BRANCH   1   2
HETATM    2  N   UNN     0     -19.126  -0.998  10.865  0.00  0.00     0.113 N 
HETATM    3  H   UNN     0     -18.824  -0.087  10.439  0.00  0.00     0.318 HD
BRANCH   2   4
HETATM    4  C   UNN     0     -20.408  -0.790  11.547  0.00  0.00     0.318 C 
BRANCH   4   5
HETATM    5  C   UNN     0     -21.115  -2.144  11.744  0.00  0.00     0.050 C 
BRANCH   5   6
HETATM    6  C   UNN     0     -22.595  -2.179  11.308  0.00  0.00    -0.020 C 
HETATM    7  C   UNN     0     -23.508  -2.103  12.545  0.00  0.00     0.009 C 
HETATM    8  C   UNN     0     -22.948  -1.052  10.325  0.00  0.00     0.009 C 
ENDBRANCH   5   6
ENDBRANCH   4   5
BRANCH   4   9
HETATM    9  C   UNN     0     -20.174  -0.135  12.900  0.00  0.00     0.174 C 
HETATM   10  O   UNN     0     -21.008   0.453  13.545  0.00  0.00    -0.648 OA
BRANCH   9  11
HETATM   11  O   UNN     0     -18.906  -0.285  13.328  0.00  0.00    -0.775 OA
HETATM   12  H   UNN     0     -18.804  -1.183  13.681  0.00  0.00     0.167 HD
ENDBRANCH   9  11
ENDBRANCH   4   9
ENDBRANCH   2   4
ENDBRANCH   1   2
BRANCH   1  13
HETATM   13  C   UNN     0     -18.745  -1.393   8.478  0.00  0.00     0.105 C 
BRANCH  13  14
HETATM   14  C   UNN     0     -19.963  -0.907   7.742  0.00  0.00     0.030 A 
HETATM   15  N   UNN     0     -20.704  -1.439   6.859  0.00  0.00    -0.341 N 
HETATM   16  C   UNN     0     -21.642  -0.666   6.505  0.00  0.00     0.183 A 
HETATM   17  N   UNN     0     -21.564   0.426   7.138  0.00  0.00    -0.360 N 
HETATM   18  C   UNN     0     -20.552   0.293   7.890  0.00  0.00     0.114 A 
HETATM   19  HN  UNN     0     -22.179   1.236   7.060  1.00  0.00     0.166 HD
BRANCH  15  20
HETATM   20  C   UNN     0     -20.536  -2.791   6.304  0.00  0.00     0.168 C 
BRANCH  20  21
HETATM   21  C   UNN     0     -21.077  -3.833   7.262  0.00  0.00    -0.037 A 
HETATM   22  C   UNN     0     -20.312  -4.875   7.632  0.00  0.00     0.032 A 
HETATM   23  C   UNN     0     -20.772  -5.807   8.481  0.00  0.00     0.036 A 
HETATM   24 Cl   UNN     0     -19.756  -7.128   8.935  0.00  0.00    -0.084 Cl
HETATM   25  C   UNN     0     -22.017  -5.709   8.974  0.00  0.00     0.047 A 
HETATM   26  C   UNN     0     -22.791  -4.674   8.609  0.00  0.00     0.036 A 
HETATM   27 Cl   UNN     0     -24.396  -4.538   9.236  0.00  0.00    -0.084 Cl
HETATM   28  C   UNN     0     -22.322  -3.744   7.761  0.00  0.00     0.032 A 
ENDBRANCH  20  21
ENDBRANCH  15  20
ENDBRANCH  13  14
ENDBRANCH   1  13
BRANCH   1  29
HETATM   29  C   UNN     0     -18.160  -3.152  10.196  0.00  0.00     0.174 C 
HETATM   30  O   UNN     0     -18.445  -4.301  10.434  0.00  0.00    -0.648 OA
BRANCH  29  31
HETATM   31  O   UNN     0     -16.887  -2.715  10.252  0.00  0.00    -0.775 OA
HETATM   32  H   UNN     0     -16.875  -1.764  10.058  0.00  0.00     0.167 HD
ENDBRANCH  29  31
ENDBRANCH   1  29
TORSDOF 12
ENDMDL
MODEL 5
REMARK VINA RESULT:      -5.6     17.566     19.416
REMARK  12 active torsions:
REMARK  status: ('A' for Active; 'I' for Inactive)
REMARK    1  A    between atoms: O_3  and  C_19 
REMARK    2  A    between atoms: O_4  and  C_20 
REMARK    3  A    between atoms: N_7  and  C_11 
REMARK    4  A    between atoms: N_7  and  C_14 
REMARK    5  A    between atoms: N_8  and  C_21 
REMARK    6  A    between atoms: C_11  and  C_12 
REMARK    7  A    between atoms: C_11  and  C_19 
REMARK    8  A    between atoms: C_12  and  C_13 
REMARK    9  A    between atoms: C_14  and  C_15 
REMARK   10  A    between atoms: C_14  and  C_20 
REMARK   11  A    between atoms: C_15  and  C_16 
REMARK   12  A    between atoms: C_21  and  C_24 
ROOT
HETATM    1  C   UNN     0     -20.197  -1.510  28.308  0.00  0.00     0.323 C 
ENDROOT
BRANCH   1   2
HETATM    2  N   UNN     0     -20.786  -2.645  29.023  0.00  0.00     0.113 N 
HETATM    3  H   UNN     0     -20.015  -3.277  29.353  0.00  0.00     0.318 HD
BRANCH   2   4
HETATM    4  C   UNN     0     -21.631  -2.303  30.172  0.00  0.00     0.318 C 
BRANCH   4   5
HETATM    5  C   UNN     0     -23.106  -2.246  29.731  0.00  0.00     0.050 C 
BRANCH   5   6
HETATM    6  C   UNN     0     -23.537  -3.356  28.749  0.00  0.00    -0.020 C 
HETATM    7  C   UNN     0     -24.675  -4.190  29.366  0.00  0.00     0.009 C 
HETATM    8  C   UNN     0     -23.975  -2.800  27.384  0.00  0.00     0.009 C 
ENDBRANCH   5   6
ENDBRANCH   4   5
BRANCH   4   9
HETATM    9  C   UNN     0     -21.465  -3.347  31.266  0.00  0.00     0.174 C 
HETATM   10  O   UNN     0     -22.342  -3.738  31.997  0.00  0.00    -0.648 OA
BRANCH   9  11
HETATM   11  O   UNN     0     -20.205  -3.815  31.338  0.00  0.00    -0.775 OA
HETATM   12  H   UNN     0     -19.609  -3.069  31.518  0.00  0.00     0.167 HD
ENDBRANCH   9  11
ENDBRANCH   4   9
ENDBRANCH   2   4
ENDBRANCH   1   2
BRANCH   1  13
HETATM   13  C   UNN     0     -18.734  -1.336  28.754  0.00  0.00     0.105 C 
BRANCH  13  14
HETATM   14  C   UNN     0     -18.590  -0.208  29.738  0.00  0.00     0.030 A 
HETATM   15  N   UNN     0     -17.722   0.054  30.626  0.00  0.00    -0.341 N 
HETATM   16  C   UNN     0     -17.988   1.129  31.241  0.00  0.00     0.183 A 
HETATM   17  N   UNN     0     -19.058   1.631  30.790  0.00  0.00    -0.360 N 
HETATM   18  C   UNN     0     -19.432   0.832  29.880  0.00  0.00     0.114 A 
HETATM   19  HN  UNN     0     -19.518   2.489  31.093  1.00  0.00     0.166 HD
BRANCH  15  20
HETATM   20  C   UNN     0     -16.530  -0.756  30.921  0.00  0.00     0.168 C 
BRANCH  20  21
HETATM   21  C   UNN     0     -16.605  -1.327  32.323  0.00  0.00    -0.037 A 
HETATM   22  C   UNN     0     -15.558  -1.212  33.158  0.00  0.00     0.032 A 
HETATM   23  C   UNN     0     -15.605  -1.709  34.404  0.00  0.00     0.036 A 
HETATM   24 Cl   UNN     0     -14.239  -1.537  35.447  0.00  0.00    -0.084 Cl
HETATM   25  C   UNN     0     -16.712  -2.335  34.834  0.00  0.00     0.047 A 
HETATM   26  C   UNN     0     -17.764  -2.458  34.009  0.00  0.00     0.036 A 
HETATM   27 Cl   UNN     0     -19.193  -3.263  34.551  0.00  0.00    -0.084 Cl
HETATM   28  C   UNN     0     -17.709  -1.956  32.764  0.00  0.00     0.032 A 
ENDBRANCH  20  21
ENDBRANCH  15  20
ENDBRANCH  13  14
ENDBRANCH   1  13
BRANCH   1  29
HETATM   29  C   UNN     0     -20.297  -1.717  26.805  0.00  0.00     0.174 C 
HETATM   30  O   UNN     0     -20.801  -0.968  26.003  0.00  0.00    -0.648 OA
BRANCH  29  31
HETATM   31  O   UNN     0     -19.753  -2.891  26.428  0.00  0.00    -0.775 OA
HETATM   32  H   UNN     0     -18.893  -2.991  26.868  0.00  0.00     0.167 HD
ENDBRANCH  29  31
ENDBRANCH   1  29
TORSDOF 12
ENDMDL
MODEL 6
REMARK VINA RESULT:      -5.6     11.511     14.355
REMARK  12 active torsions:
REMARK  status: ('A' for Active; 'I' for Inactive)
REMARK    1  A    between atoms: O_3  and  C_19 
REMARK    2  A    between atoms: O_4  and  C_20 
REMARK    3  A    between atoms: N_7  and  C_11 
REMARK    4  A    between atoms: N_7  and  C_14 
REMARK    5  A    between atoms: N_8  and  C_21 
REMARK    6  A    between atoms: C_11  and  C_12 
REMARK    7  A    between atoms: C_11  and  C_19 
REMARK    8  A    between atoms: C_12  and  C_13 
REMARK    9  A    between atoms: C_14  and  C_15 
REMARK   10  A    between atoms: C_14  and  C_20 
REMARK   11  A    between atoms: C_15  and  C_16 
REMARK   12  A    between atoms: C_21  and  C_24 
ROOT
HETATM    1  C   UNN     0     -18.763   9.214   5.760  0.00  0.00     0.323 C 
ENDROOT
BRANCH   1   2
HETATM    2  N   UNN     0     -20.091   9.684   5.357  0.00  0.00     0.113 N 
HETATM    3  H   UNN     0     -20.764   9.517   6.145  0.00  0.00     0.318 HD
BRANCH   2   4
HETATM    4  C   UNN     0     -20.174  11.095   4.965  0.00  0.00     0.318 C 
BRANCH   4   5
HETATM    5  C   UNN     0     -20.305  11.199   3.434  0.00  0.00     0.050 C 
BRANCH   5   6
HETATM    6  C   UNN     0     -19.592  12.411   2.798  0.00  0.00    -0.020 C 
HETATM    7  C   UNN     0     -18.438  11.929   1.899  0.00  0.00     0.009 C 
HETATM    8  C   UNN     0     -20.549  13.302   1.990  0.00  0.00     0.009 C 
ENDBRANCH   5   6
ENDBRANCH   4   5
BRANCH   4   9
HETATM    9  C   UNN     0     -21.380  11.745   5.626  0.00  0.00     0.174 C 
HETATM   10  O   UNN     0     -22.235  12.376   5.053  0.00  0.00    -0.648 OA
BRANCH   9  11
HETATM   11  O   UNN     0     -21.408  11.536   6.956  0.00  0.00    -0.775 OA
HETATM   12  H   UNN     0     -20.900  10.733   7.153  0.00  0.00     0.167 HD
ENDBRANCH   9  11
ENDBRANCH   4   9
ENDBRANCH   2   4
ENDBRANCH   1   2
BRANCH   1  13
HETATM   13  C   UNN     0     -17.705   9.818   4.818  0.00  0.00     0.105 C 
BRANCH  13  14
HETATM   14  C   UNN     0     -17.340   8.861   3.718  0.00  0.00     0.030 A 
HETATM   15  N   UNN     0     -16.261   8.650   3.084  0.00  0.00    -0.341 N 
HETATM   16  C   UNN     0     -16.394   7.732   2.222  0.00  0.00     0.183 A 
HETATM   17  N   UNN     0     -17.580   7.293   2.238  0.00  0.00    -0.360 N 
HETATM   18  C   UNN     0     -18.163   7.967   3.140  0.00  0.00     0.114 A 
HETATM   19  HN  UNN     0     -17.979   6.557   1.655  1.00  0.00     0.166 HD
BRANCH  15  20
HETATM   20  C   UNN     0     -14.987   9.350   3.308  0.00  0.00     0.168 C 
BRANCH  20  21
HETATM   21  C   UNN     0     -14.918  10.614   2.475  0.00  0.00    -0.037 A 
HETATM   22  C   UNN     0     -14.770  11.811   3.071  0.00  0.00     0.032 A 
HETATM   23  C   UNN     0     -14.705  12.941   2.351  0.00  0.00     0.036 A 
HETATM   24 Cl   UNN     0     -14.511  14.458   3.154  0.00  0.00    -0.084 Cl
HETATM   25  C   UNN     0     -14.790  12.889   1.012  0.00  0.00     0.047 A 
HETATM   26  C   UNN     0     -14.940  11.700   0.406  0.00  0.00     0.036 A 
HETATM   27 Cl   UNN     0     -15.052  11.621  -1.316  0.00  0.00    -0.084 Cl
HETATM   28  C   UNN     0     -15.002  10.573   1.134  0.00  0.00     0.032 A 
ENDBRANCH  20  21
ENDBRANCH  15  20
ENDBRANCH  13  14
ENDBRANCH   1  13
BRANCH   1  29
HETATM   29  C   UNN     0     -18.486   9.580   7.210  0.00  0.00     0.174 C 
HETATM   30  O   UNN     0     -19.301   9.889   8.047  0.00  0.00    -0.648 OA
BRANCH  29  31
HETATM   31  O   UNN     0     -17.169   9.542   7.490  0.00  0.00    -0.775 OA
HETATM   32  H   UNN     0     -16.986  10.158   8.217  0.00  0.00     0.167 HD
ENDBRANCH  29  31
ENDBRANCH   1  29
TORSDOF 12
ENDMDL
MODEL 7
REMARK VINA RESULT:      -5.5      4.328      8.292
REMARK  12 active torsions:
REMARK  status: ('A' for Active; 'I' for Inactive)
REMARK    1  A    between atoms: O_3  and  C_19 
REMARK    2  A    between atoms: O_4  and  C_20 
REMARK    3  A    between atoms: N_7  and  C_11 
REMARK    4  A    between atoms: N_7  and  C_14 
REMARK    5  A    between atoms: N_8  and  C_21 
REMARK    6  A    between atoms: C_11  and  C_12 
REMARK    7  A    between atoms: C_11  and  C_19 
REMARK    8  A    between atoms: C_12  and  C_13 
REMARK    9  A    between atoms: C_14  and  C_15 
REMARK   10  A    between atoms: C_14  and  C_20 
REMARK   11  A    between atoms: C_15  and  C_16 
REMARK   12  A    between atoms: C_21  and  C_24 
ROOT
HETATM    1  C   UNN     0     -21.151   0.914  12.680  0.00  0.00     0.323 C 
ENDROOT
BRANCH   1   2
HETATM    2  N   UNN     0     -21.464   2.328  12.463  0.00  0.00     0.113 N 
HETATM    3  H   UNN     0     -20.632   2.797  12.025  0.00  0.00     0.318 HD
BRANCH   2   4
HETATM    4  C   UNN     0     -22.642   2.598  11.632  0.00  0.00     0.318 C 
BRANCH   4   5
HETATM    5  C   UNN     0     -23.612   3.519  12.395  0.00  0.00     0.050 C 
BRANCH   5   6
HETATM    6  C   UNN     0     -24.913   2.843  12.877  0.00  0.00    -0.020 C 
HETATM    7  C   UNN     0     -25.487   1.953  11.759  0.00  0.00     0.009 C 
HETATM    8  C   UNN     0     -24.710   2.013  14.155  0.00  0.00     0.009 C 
ENDBRANCH   5   6
ENDBRANCH   4   5
BRANCH   4   9
HETATM    9  C   UNN     0     -22.217   3.269  10.334  0.00  0.00     0.174 C 
HETATM   10  O   UNN     0     -22.966   3.673   9.479  0.00  0.00    -0.648 OA
BRANCH   9  11
HETATM   11  O   UNN     0     -20.879   3.379  10.230  0.00  0.00    -0.775 OA
HETATM   12  H   UNN     0     -20.545   3.834  11.020  0.00  0.00     0.167 HD
ENDBRANCH   9  11
ENDBRANCH   4   9
ENDBRANCH   2   4
ENDBRANCH   1   2
BRANCH   1  13
HETATM   13  C   UNN     0     -22.289   0.050  12.107  0.00  0.00     0.105 C 
BRANCH  13  14
HETATM   14  C   UNN     0     -22.554  -1.152  12.970  0.00  0.00     0.030 A 
HETATM   15  N   UNN     0     -22.823  -2.363  12.700  0.00  0.00    -0.341 N 
HETATM   16  C   UNN     0     -22.972  -3.056  13.749  0.00  0.00     0.183 A 
HETATM   17  N   UNN     0     -22.816  -2.330  14.773  0.00  0.00    -0.360 N 
HETATM   18  C   UNN     0     -22.562  -1.175  14.315  0.00  0.00     0.114 A 
HETATM   19  HN  UNN     0     -22.880  -2.611  15.751  1.00  0.00     0.166 HD
BRANCH  15  20
HETATM   20  C   UNN     0     -22.935  -2.932  11.349  0.00  0.00     0.168 C 
BRANCH  20  21
HETATM   21  C   UNN     0     -21.659  -3.655  10.966  0.00  0.00    -0.037 A 
HETATM   22  C   UNN     0     -21.628  -4.999  10.924  0.00  0.00     0.032 A 
HETATM   23  C   UNN     0     -20.509  -5.658  10.585  0.00  0.00     0.036 A 
HETATM   24 Cl   UNN     0     -20.513  -7.385  10.539  0.00  0.00    -0.084 Cl
HETATM   25  C   UNN     0     -19.395  -4.974  10.284  0.00  0.00     0.047 A 
HETATM   26  C   UNN     0     -19.412  -3.632  10.325  0.00  0.00     0.036 A 
HETATM   27 Cl   UNN     0     -17.982  -2.741   9.940  0.00  0.00    -0.084 Cl
HETATM   28  C   UNN     0     -20.537  -2.980  10.662  0.00  0.00     0.032 A 
ENDBRANCH  20  21
ENDBRANCH  15  20
ENDBRANCH  13  14
ENDBRANCH   1  13
BRANCH   1  29
HETATM   29  C   UNN     0     -19.814   0.561  12.045  0.00  0.00     0.174 C 
HETATM   30  O   UNN     0     -19.439   0.858  10.937  0.00  0.00    -0.648 OA
BRANCH  29  31
HETATM   31  O   UNN     0     -19.048  -0.171  12.877  0.00  0.00    -0.775 OA
HETATM   32  H   UNN     0     -19.549  -0.347  13.689  0.00  0.00     0.167 HD
ENDBRANCH  29  31
ENDBRANCH   1  29
TORSDOF 12
ENDMDL
MODEL 8
REMARK VINA RESULT:      -5.4     21.511     23.033
REMARK  12 active torsions:
REMARK  status: ('A' for Active; 'I' for Inactive)
REMARK    1  A    between atoms: O_3  and  C_19 
REMARK    2  A    between atoms: O_4  and  C_20 
REMARK    3  A    between atoms: N_7  and  C_11 
REMARK    4  A    between atoms: N_7  and  C_14 
REMARK    5  A    between atoms: N_8  and  C_21 
REMARK    6  A    between atoms: C_11  and  C_12 
REMARK    7  A    between atoms: C_11  and  C_19 
REMARK    8  A    between atoms: C_12  and  C_13 
REMARK    9  A    between atoms: C_14  and  C_15 
REMARK   10  A    between atoms: C_14  and  C_20 
REMARK   11  A    between atoms: C_15  and  C_16 
REMARK   12  A    between atoms: C_21  and  C_24 
ROOT
HETATM    1  C   UNN     0      -4.490  -0.825  26.880  0.00  0.00     0.323 C 
ENDROOT
BRANCH   1   2
HETATM    2  N   UNN     0      -3.455  -1.053  25.869  0.00  0.00     0.113 N 
HETATM    3  H   UNN     0      -3.654  -1.961  25.378  0.00  0.00     0.318 HD
BRANCH   2   4
HETATM    4  C   UNN     0      -3.311   0.000  24.858  0.00  0.00     0.318 C 
BRANCH   4   5
HETATM    5  C   UNN     0      -1.855   0.502  24.840  0.00  0.00     0.050 C 
BRANCH   5   6
HETATM    6  C   UNN     0      -0.996   0.061  26.043  0.00  0.00    -0.020 C 
HETATM    7  C   UNN     0       0.260  -0.680  25.549  0.00  0.00     0.009 C 
HETATM    8  C   UNN     0      -0.589   1.240  26.943  0.00  0.00     0.009 C 
ENDBRANCH   5   6
ENDBRANCH   4   5
BRANCH   4   9
HETATM    9  C   UNN     0      -3.680  -0.544  23.487  0.00  0.00     0.174 C 
HETATM   10  O   UNN     0      -2.896  -0.849  22.622  0.00  0.00    -0.648 OA
BRANCH   9  11
HETATM   11  O   UNN     0      -5.012  -0.666  23.327  0.00  0.00    -0.775 OA
HETATM   12  H   UNN     0      -5.194  -1.512  22.888  0.00  0.00     0.167 HD
ENDBRANCH   9  11
ENDBRANCH   4   9
ENDBRANCH   2   4
ENDBRANCH   1   2
BRANCH   1  13
HETATM   13  C   UNN     0      -4.964   0.638  26.798  0.00  0.00     0.105 C 
BRANCH  13  14
HETATM   14  C   UNN     0      -4.345   1.477  27.881  0.00  0.00     0.030 A 
HETATM   15  N   UNN     0      -4.296   2.730  28.077  0.00  0.00    -0.341 N 
HETATM   16  C   UNN     0      -3.663   3.016  29.136  0.00  0.00     0.183 A 
HETATM   17  N   UNN     0      -3.254   1.958  29.693  0.00  0.00    -0.360 N 
HETATM   18  C   UNN     0      -3.660   1.019  28.945  0.00  0.00     0.114 A 
HETATM   19  HN  UNN     0      -2.715   1.877  30.556  1.00  0.00     0.166 HD
BRANCH  15  20
HETATM   20  C   UNN     0      -4.903   3.754  27.213  0.00  0.00     0.168 C 
BRANCH  20  21
HETATM   21  C   UNN     0      -3.833   4.546  26.489  0.00  0.00    -0.037 A 
HETATM   22  C   UNN     0      -3.873   5.890  26.481  0.00  0.00     0.032 A 
HETATM   23  C   UNN     0      -2.934   6.609  25.848  0.00  0.00     0.036 A 
HETATM   24 Cl   UNN     0      -3.020   8.335  25.866  0.00  0.00    -0.084 Cl
HETATM   25  C   UNN     0      -1.933   5.988  25.206  0.00  0.00     0.047 A 
HETATM   26  C   UNN     0      -1.883   4.646  25.204  0.00  0.00     0.036 A 
HETATM   27 Cl   UNN     0      -0.600   3.834  24.379  0.00  0.00    -0.084 Cl
HETATM   28  C   UNN     0      -2.825   3.933  25.843  0.00  0.00     0.032 A 
ENDBRANCH  20  21
ENDBRANCH  15  20
ENDBRANCH  13  14
ENDBRANCH   1  13
BRANCH   1  29
HETATM   29  C   UNN     0      -5.647  -1.793  26.686  0.00  0.00     0.174 C 
HETATM   30  O   UNN     0      -5.968  -2.341  25.659  0.00  0.00    -0.648 OA
BRANCH  29  31
HETATM   31  O   UNN     0      -6.332  -1.984  27.830  0.00  0.00    -0.775 OA
HETATM   32  H   UNN     0      -6.391  -2.937  28.003  0.00  0.00     0.167 HD
ENDBRANCH  29  31
ENDBRANCH   1  29
TORSDOF 12
ENDMDL
MODEL 9
REMARK VINA RESULT:      -5.4      4.161      9.047
REMARK  12 active torsions:
REMARK  status: ('A' for Active; 'I' for Inactive)
REMARK    1  A    between atoms: O_3  and  C_19 
REMARK    2  A    between atoms: O_4  and  C_20 
REMARK    3  A    between atoms: N_7  and  C_11 
REMARK    4  A    between atoms: N_7  and  C_14 
REMARK    5  A    between atoms: N_8  and  C_21 
REMARK    6  A    between atoms: C_11  and  C_12 
REMARK    7  A    between atoms: C_11  and  C_19 
REMARK    8  A    between atoms: C_12  and  C_13 
REMARK    9  A    between atoms: C_14  and  C_15 
REMARK   10  A    between atoms: C_14  and  C_20 
REMARK   11  A    between atoms: C_15  and  C_16 
REMARK   12  A    between atoms: C_21  and  C_24 
ROOT
HETATM    1  C   UNN     0     -20.584   0.444  11.377  0.00  0.00     0.323 C 
ENDROOT
BRANCH   1   2
HETATM    2  N   UNN     0     -20.925   1.830  11.704  0.00  0.00     0.113 N 
HETATM    3  H   UNN     0     -20.360   2.472  11.094  0.00  0.00     0.318 HD
BRANCH   2   4
HETATM    4  C   UNN     0     -22.342   2.185  11.569  0.00  0.00     0.318 C 
BRANCH   4   5
HETATM    5  C   UNN     0     -22.668   3.372  12.495  0.00  0.00     0.050 C 
BRANCH   5   6
HETATM    6  C   UNN     0     -22.354   3.141  13.988  0.00  0.00    -0.020 C 
HETATM    7  C   UNN     0     -21.491   4.296  14.528  0.00  0.00     0.009 C 
HETATM    8  C   UNN     0     -23.623   2.990  14.842  0.00  0.00     0.009 C 
ENDBRANCH   5   6
ENDBRANCH   4   5
BRANCH   4   9
HETATM    9  C   UNN     0     -22.644   2.565  10.127  0.00  0.00     0.174 C 
HETATM   10  O   UNN     0     -23.164   1.845   9.310  0.00  0.00    -0.648 OA
BRANCH   9  11
HETATM   11  O   UNN     0     -22.272   3.827   9.842  0.00  0.00    -0.775 OA
HETATM   12  H   UNN     0     -21.592   3.799   9.150  0.00  0.00     0.167 HD
ENDBRANCH   9  11
ENDBRANCH   4   9
ENDBRANCH   2   4
ENDBRANCH   1   2
BRANCH   1  13
HETATM   13  C   UNN     0     -19.415   0.433  10.375  0.00  0.00     0.105 C 
BRANCH  13  14
HETATM   14  C   UNN     0     -19.702  -0.465   9.204  0.00  0.00     0.030 A 
HETATM   15  N   UNN     0     -19.490  -1.698   8.993  0.00  0.00    -0.341 N 
HETATM   16  C   UNN     0     -19.901  -2.057   7.851  0.00  0.00     0.183 A 
HETATM   17  N   UNN     0     -20.404  -1.069   7.242  0.00  0.00    -0.360 N 
HETATM   18  C   UNN     0     -20.291  -0.099   8.051  0.00  0.00     0.114 A 
HETATM   19  HN  UNN     0     -20.811  -1.055   6.307  1.00  0.00     0.166 HD
BRANCH  15  20
HETATM   20  C   UNN     0     -18.863  -2.632   9.941  0.00  0.00     0.168 C 
BRANCH  20  21
HETATM   21  C   UNN     0     -19.807  -3.771  10.272  0.00  0.00    -0.037 A 
HETATM   22  C   UNN     0     -19.476  -5.037   9.961  0.00  0.00     0.032 A 
HETATM   23  C   UNN     0     -20.297  -6.059  10.247  0.00  0.00     0.036 A 
HETATM   24 Cl   UNN     0     -19.832  -7.671   9.834  0.00  0.00    -0.084 Cl
HETATM   25  C   UNN     0     -21.471  -5.827  10.852  0.00  0.00     0.047 A 
HETATM   26  C   UNN     0     -21.814  -4.567  11.166  0.00  0.00     0.036 A 
HETATM   27 Cl   UNN     0     -23.325  -4.254  11.944  0.00  0.00    -0.084 Cl
HETATM   28  C   UNN     0     -20.986  -3.549  10.878  0.00  0.00     0.032 A 
ENDBRANCH  20  21
ENDBRANCH  15  20
ENDBRANCH  13  14
ENDBRANCH   1  13
BRANCH   1  29
HETATM   29  C   UNN     0     -20.240  -0.332  12.639  0.00  0.00     0.174 C 
HETATM   30  O   UNN     0     -20.988  -1.017  13.294  0.00  0.00    -0.648 OA
BRANCH  29  31
HETATM   31  O   UNN     0     -18.950  -0.164  12.989  0.00  0.00    -0.775 OA
HETATM   32  H   UNN     0     -18.916   0.208  13.884  0.00  0.00     0.167 HD
ENDBRANCH  29  31
ENDBRANCH   1  29
TORSDOF 12
ENDMDL
