MODEL 1
REMARK VINA RESULT:      -5.2      0.000      0.000
REMARK  4 active torsions:
REMARK  status: ('A' for Active; 'I' for Inactive)
REMARK    1  A    between atoms: N_1  and  C_3 
REMARK    2  A    between atoms: C_3  and  C_4 
REMARK    3  A    between atoms: C_3  and  C_15 
REMARK       I    between atoms: C_4  and  N_12 
REMARK    4  A    between atoms: C_7  and  C_8 
ROOT
HETATM    1  N           1      30.644  46.769  28.467  0.00  0.00    -0.338 N 
HETATM    2  C           1      31.891  46.235  28.571  0.00  0.00     0.221 C 
HETATM    3  C           1      30.016  46.586  27.171  0.00  0.00     0.136 C 
HETATM    4  C           1      31.257  46.293  26.293  0.00  0.00     0.040 C 
HETATM    5  C           1      32.277  45.617  27.243  0.00  0.00     0.113 C 
HETATM    6  O           1      32.569  46.258  29.567  0.00  0.00    -0.273 OA
ENDROOT
BRANCH   1   7
HETATM    7  C           1      29.963  47.500  29.531  0.00  0.00     0.178 C 
BRANCH   7   8
HETATM    8  C           1      28.857  46.685  30.197  0.00  0.00     0.238 C 
HETATM    9  O           1      28.982  45.569  30.629  0.00  0.00    -0.271 OA
HETATM   10  N           1      27.653  47.314  30.268  0.00  0.00    -0.368 N 
HETATM   11  H           1      26.887  46.812  30.694  0.00  0.00     0.159 HD
HETATM   12  H           1      27.524  48.246  29.898  0.00  0.00     0.159 HD
ENDBRANCH   7   8
BRANCH   7  13
HETATM   13  C           1      29.574  48.934  29.120  0.00  0.00     0.030 C 
HETATM   14  C           1      30.751  49.857  28.783  0.00  0.00     0.007 C 
ENDBRANCH   7  13
ENDBRANCH   1   7
BRANCH   4  15
HETATM   15  C           1      30.981  45.482  25.054  0.00  0.00     0.054 C 
HETATM   16  C           1      30.338  44.307  25.061  0.00  0.00     0.263 C 
HETATM   17  F           1      30.110  43.653  23.935  0.00  0.00    -0.173 F 
HETATM   18  F           1      29.908  43.773  26.192  0.00  0.00    -0.173 F 
ENDBRANCH   4  15
TORSDOF 4
ENDMDL
MODEL 2
REMARK VINA RESULT:      -5.2     37.253     38.163
REMARK  4 active torsions:
REMARK  status: ('A' for Active; 'I' for Inactive)
REMARK    1  A    between atoms: N_1  and  C_3 
REMARK    2  A    between atoms: C_3  and  C_4 
REMARK    3  A    between atoms: C_3  and  C_15 
REMARK       I    between atoms: C_4  and  N_12 
REMARK    4  A    between atoms: C_7  and  C_8 
ROOT
HETATM    1  N           1      30.502  29.902  -6.625  0.00  0.00    -0.338 N 
HETATM    2  C           1      30.814  30.396  -7.853  0.00  0.00     0.221 C 
HETATM    3  C           1      31.645  29.660  -5.763  0.00  0.00     0.136 C 
HETATM    4  C           1      32.782  29.596  -6.813  0.00  0.00     0.040 C 
HETATM    5  C           1      32.320  30.516  -7.969  0.00  0.00     0.113 C 
HETATM    6  O           1      30.011  30.686  -8.703  0.00  0.00    -0.273 OA
ENDROOT
BRANCH   1   7
HETATM    7  C           1      29.148  29.597  -6.173  0.00  0.00     0.178 C 
BRANCH   7   8
HETATM    8  C           1      28.334  30.848  -5.848  0.00  0.00     0.238 C 
HETATM    9  O           1      28.374  31.449  -4.806  0.00  0.00    -0.271 OA
HETATM   10  N           1      27.507  31.262  -6.845  0.00  0.00    -0.368 N 
HETATM   11  H           1      26.942  32.082  -6.675  0.00  0.00     0.159 HD
HETATM   12  H           1      27.449  30.762  -7.722  0.00  0.00     0.159 HD
ENDBRANCH   7   8
BRANCH   7  13
HETATM   13  C           1      29.107  28.484  -5.108  0.00  0.00     0.030 C 
HETATM   14  C           1      28.540  27.144  -5.588  0.00  0.00     0.007 C 
ENDBRANCH   7  13
ENDBRANCH   1   7
BRANCH   4  15
HETATM   15  C           1      34.149  29.950  -6.290  0.00  0.00     0.054 C 
HETATM   16  C           1      34.875  29.147  -5.500  0.00  0.00     0.263 C 
HETATM   17  F           1      36.079  29.510  -5.090  0.00  0.00    -0.173 F 
HETATM   18  F           1      34.412  27.970  -5.115  0.00  0.00    -0.173 F 
ENDBRANCH   4  15
TORSDOF 4
ENDMDL
MODEL 3
REMARK VINA RESULT:      -5.0     18.248     19.145
REMARK  4 active torsions:
REMARK  status: ('A' for Active; 'I' for Inactive)
REMARK    1  A    between atoms: N_1  and  C_3 
REMARK    2  A    between atoms: C_3  and  C_4 
REMARK    3  A    between atoms: C_3  and  C_15 
REMARK       I    between atoms: C_4  and  N_12 
REMARK    4  A    between atoms: C_7  and  C_8 
ROOT
HETATM    1  N           1      20.570  29.786  26.601  0.00  0.00    -0.338 N 
HETATM    2  C           1      20.991  28.507  26.403  0.00  0.00     0.221 C 
HETATM    3  C           1      20.689  30.646  25.437  0.00  0.00     0.136 C 
HETATM    4  C           1      21.726  29.855  24.604  0.00  0.00     0.040 C 
HETATM    5  C           1      21.507  28.370  24.986  0.00  0.00     0.113 C 
HETATM    6  O           1      20.953  27.634  27.233  0.00  0.00    -0.273 OA
ENDROOT
BRANCH   1   7
HETATM    7  C           1      20.063  30.306  27.866  0.00  0.00     0.178 C 
BRANCH   7   8
HETATM    8  C           1      18.674  29.773  28.212  0.00  0.00     0.238 C 
HETATM    9  O           1      17.644  30.141  27.709  0.00  0.00    -0.271 OA
HETATM   10  N           1      18.658  28.820  29.182  0.00  0.00    -0.368 N 
HETATM   11  H           1      17.761  28.441  29.452  0.00  0.00     0.159 HD
HETATM   12  H           1      19.510  28.508  29.627  0.00  0.00     0.159 HD
ENDBRANCH   7   8
BRANCH   7  13
HETATM   13  C           1      20.240  31.831  28.003  0.00  0.00     0.030 C 
HETATM   14  C           1      19.655  32.442  29.281  0.00  0.00     0.007 C 
ENDBRANCH   7  13
ENDBRANCH   1   7
BRANCH   4  15
HETATM   15  C           1      21.664  30.095  23.118  0.00  0.00     0.054 C 
HETATM   16  C           1      22.670  30.619  22.405  0.00  0.00     0.263 C 
HETATM   17  F           1      22.558  30.787  21.099  0.00  0.00    -0.173 F 
HETATM   18  F           1      23.802  30.977  22.987  0.00  0.00    -0.173 F 
ENDBRANCH   4  15
TORSDOF 4
ENDMDL
MODEL 4
REMARK VINA RESULT:      -4.9     42.952     44.624
REMARK  4 active torsions:
REMARK  status: ('A' for Active; 'I' for Inactive)
REMARK    1  A    between atoms: N_1  and  C_3 
REMARK    2  A    between atoms: C_3  and  C_4 
REMARK    3  A    between atoms: C_3  and  C_15 
REMARK       I    between atoms: C_4  and  N_12 
REMARK    4  A    between atoms: C_7  and  C_8 
ROOT
HETATM    1  N           1      23.736  24.014  -9.533  0.00  0.00    -0.338 N 
HETATM    2  C           1      22.908  24.579  -8.614  0.00  0.00     0.221 C 
HETATM    3  C           1      23.374  22.662  -9.921  0.00  0.00     0.136 C 
HETATM    4  C           1      22.474  22.257  -8.728  0.00  0.00     0.040 C 
HETATM    5  C           1      21.836  23.579  -8.232  0.00  0.00     0.113 C 
HETATM    6  O           1      23.021  25.698  -8.182  0.00  0.00    -0.273 OA
ENDROOT
BRANCH   1   7
HETATM    7  C           1      24.920  24.659 -10.091  0.00  0.00     0.178 C 
BRANCH   7   8
HETATM    8  C           1      24.809  24.904 -11.595  0.00  0.00     0.238 C 
HETATM    9  O           1      23.923  25.513 -12.135  0.00  0.00    -0.271 OA
HETATM   10  N           1      25.810  24.356 -12.335  0.00  0.00    -0.368 N 
HETATM   11  H           1      25.777  24.485 -13.336  0.00  0.00     0.159 HD
HETATM   12  H           1      26.556  23.829 -11.901  0.00  0.00     0.159 HD
ENDBRANCH   7   8
BRANCH   7  13
HETATM   13  C           1      26.236  24.009  -9.622  0.00  0.00     0.030 C 
HETATM   14  C           1      26.599  24.262  -8.154  0.00  0.00     0.007 C 
ENDBRANCH   7  13
ENDBRANCH   1   7
BRANCH   4  15
HETATM   15  C           1      21.454  21.192  -9.036  0.00  0.00     0.054 C 
HETATM   16  C           1      21.282  20.089  -8.294  0.00  0.00     0.263 C 
HETATM   17  F           1      20.354  19.201  -8.608  0.00  0.00    -0.173 F 
HETATM   18  F           1      22.030  19.862  -7.227  0.00  0.00    -0.173 F 
ENDBRANCH   4  15
TORSDOF 4
ENDMDL
MODEL 5
REMARK VINA RESULT:      -4.8     12.287     13.451
REMARK  4 active torsions:
REMARK  status: ('A' for Active; 'I' for Inactive)
REMARK    1  A    between atoms: N_1  and  C_3 
REMARK    2  A    between atoms: C_3  and  C_4 
REMARK    3  A    between atoms: C_3  and  C_15 
REMARK       I    between atoms: C_4  and  N_12 
REMARK    4  A    between atoms: C_7  and  C_8 
ROOT
HETATM    1  N           1      21.003  54.028  24.146  0.00  0.00    -0.338 N 
HETATM    2  C           1      19.839  54.500  24.667  0.00  0.00     0.221 C 
HETATM    3  C           1      22.184  54.325  24.938  0.00  0.00     0.136 C 
HETATM    4  C           1      21.660  55.504  25.794  0.00  0.00     0.040 C 
HETATM    5  C           1      20.139  55.252  25.947  0.00  0.00     0.113 C 
HETATM    6  O           1      18.750  54.338  24.177  0.00  0.00    -0.273 OA
ENDROOT
BRANCH   1   7
HETATM    7  C           1      21.114  53.303  22.884  0.00  0.00     0.178 C 
BRANCH   7   8
HETATM    8  C           1      21.016  51.789  23.059  0.00  0.00     0.238 C 
HETATM    9  O           1      21.934  51.017  22.953  0.00  0.00    -0.271 OA
HETATM   10  N           1      19.767  51.330  23.341  0.00  0.00    -0.368 N 
HETATM   11  H           1      19.649  50.334  23.459  0.00  0.00     0.159 HD
HETATM   12  H           1      18.981  51.961  23.420  0.00  0.00     0.159 HD
ENDBRANCH   7   8
BRANCH   7  13
HETATM   13  C           1      22.284  53.794  22.010  0.00  0.00     0.030 C 
HETATM   14  C           1      22.142  53.507  20.511  0.00  0.00     0.007 C 
ENDBRANCH   7  13
ENDBRANCH   1   7
BRANCH   4  15
HETATM   15  C           1      22.360  55.690  27.115  0.00  0.00     0.054 C 
HETATM   16  C           1      23.405  56.510  27.295  0.00  0.00     0.263 C 
HETATM   17  F           1      23.964  56.642  28.486  0.00  0.00    -0.173 F 
HETATM   18  F           1      23.901  57.212  26.289  0.00  0.00    -0.173 F 
ENDBRANCH   4  15
TORSDOF 4
ENDMDL
MODEL 6
REMARK VINA RESULT:      -4.8     42.965     44.283
REMARK  4 active torsions:
REMARK  status: ('A' for Active; 'I' for Inactive)
REMARK    1  A    between atoms: N_1  and  C_3 
REMARK    2  A    between atoms: C_3  and  C_4 
REMARK    3  A    between atoms: C_3  and  C_15 
REMARK       I    between atoms: C_4  and  N_12 
REMARK    4  A    between atoms: C_7  and  C_8 
ROOT
HETATM    1  N           1      22.877  22.769  -8.061  0.00  0.00    -0.338 N 
HETATM    2  C           1      23.686  23.438  -7.196  0.00  0.00     0.221 C 
HETATM    3  C           1      23.348  22.750  -9.435  0.00  0.00     0.136 C 
HETATM    4  C           1      24.329  23.947  -9.415  0.00  0.00     0.040 C 
HETATM    5  C           1      24.860  24.012  -7.961  0.00  0.00     0.113 C 
HETATM    6  O           1      23.486  23.548  -6.013  0.00  0.00    -0.273 OA
ENDROOT
BRANCH   1   7
HETATM    7  C           1      21.616  22.132  -7.695  0.00  0.00     0.178 C 
BRANCH   7   8
HETATM    8  C           1      21.764  20.636  -7.425  0.00  0.00     0.238 C 
HETATM    9  O           1      22.532  20.145  -6.640  0.00  0.00    -0.271 OA
HETATM   10  N           1      20.948  19.842  -8.170  0.00  0.00    -0.368 N 
HETATM   11  H           1      21.014  18.843  -8.033  0.00  0.00     0.159 HD
HETATM   12  H           1      20.306  20.234  -8.845  0.00  0.00     0.159 HD
ENDBRANCH   7   8
BRANCH   7  13
HETATM   13  C           1      20.451  22.526  -8.624  0.00  0.00     0.030 C 
HETATM   14  C           1      20.039  24.000  -8.561  0.00  0.00     0.007 C 
ENDBRANCH   7  13
ENDBRANCH   1   7
BRANCH   4  15
HETATM   15  C           1      25.431  23.882 -10.440  0.00  0.00     0.054 C 
HETATM   16  C           1      25.251  24.138 -11.743  0.00  0.00     0.263 C 
HETATM   17  F           1      26.265  24.082 -12.590  0.00  0.00    -0.173 F 
HETATM   18  F           1      24.058  24.459 -12.216  0.00  0.00    -0.173 F 
ENDBRANCH   4  15
TORSDOF 4
ENDMDL
MODEL 7
REMARK VINA RESULT:      -4.7     17.997     19.436
REMARK  4 active torsions:
REMARK  status: ('A' for Active; 'I' for Inactive)
REMARK    1  A    between atoms: N_1  and  C_3 
REMARK    2  A    between atoms: C_3  and  C_4 
REMARK    3  A    between atoms: C_3  and  C_15 
REMARK       I    between atoms: C_4  and  N_12 
REMARK    4  A    between atoms: C_7  and  C_8 
ROOT
HETATM    1  N           1      19.025  30.605  28.455  0.00  0.00    -0.338 N 
HETATM    2  C           1      19.781  31.735  28.490  0.00  0.00     0.221 C 
HETATM    3  C           1      19.339  29.703  27.361  0.00  0.00     0.136 C 
HETATM    4  C           1      20.072  30.670  26.399  0.00  0.00     0.040 C 
HETATM    5  C           1      20.735  31.729  27.314  0.00  0.00     0.113 C 
HETATM    6  O           1      19.693  32.596  29.330  0.00  0.00    -0.273 OA
ENDROOT
BRANCH   1   7
HETATM    7  C           1      17.955  30.292  29.397  0.00  0.00     0.178 C 
BRANCH   7   8
HETATM    8  C           1      18.452  29.546  30.633  0.00  0.00     0.238 C 
HETATM    9  O           1      18.852  30.065  31.643  0.00  0.00    -0.271 OA
HETATM   10  N           1      18.433  28.191  30.524  0.00  0.00    -0.368 N 
HETATM   11  H           1      18.760  27.652  31.313  0.00  0.00     0.159 HD
HETATM   12  H           1      18.115  27.736  29.679  0.00  0.00     0.159 HD
ENDBRANCH   7   8
BRANCH   7  13
HETATM   13  C           1      16.711  29.689  28.715  0.00  0.00     0.030 C 
HETATM   14  C           1      15.809  30.698  27.996  0.00  0.00     0.007 C 
ENDBRANCH   7  13
ENDBRANCH   1   7
BRANCH   4  15
HETATM   15  C           1      21.049  30.011  25.460  0.00  0.00     0.054 C 
HETATM   16  C           1      21.492  30.578  24.329  0.00  0.00     0.263 C 
HETATM   17  F           1      22.365  29.954  23.557  0.00  0.00    -0.173 F 
HETATM   18  F           1      21.073  31.777  23.958  0.00  0.00    -0.173 F 
ENDBRANCH   4  15
TORSDOF 4
ENDMDL
MODEL 8
REMARK VINA RESULT:      -4.6     37.322     38.183
REMARK  4 active torsions:
REMARK  status: ('A' for Active; 'I' for Inactive)
REMARK    1  A    between atoms: N_1  and  C_3 
REMARK    2  A    between atoms: C_3  and  C_4 
REMARK    3  A    between atoms: C_3  and  C_15 
REMARK       I    between atoms: C_4  and  N_12 
REMARK    4  A    between atoms: C_7  and  C_8 
ROOT
HETATM    1  N           1      32.054  29.552  -6.269  0.00  0.00    -0.338 N 
HETATM    2  C           1      32.488  28.541  -5.469  0.00  0.00     0.221 C 
HETATM    3  C           1      30.609  29.671  -6.360  0.00  0.00     0.136 C 
HETATM    4  C           1      30.179  28.258  -5.895  0.00  0.00     0.040 C 
HETATM    5  C           1      31.290  27.795  -4.921  0.00  0.00     0.113 C 
HETATM    6  O           1      33.645  28.292  -5.243  0.00  0.00    -0.273 OA
ENDROOT
BRANCH   1   7
HETATM    7  C           1      32.926  30.451  -7.019  0.00  0.00     0.178 C 
BRANCH   7   8
HETATM    8  C           1      33.718  31.397  -6.118  0.00  0.00     0.238 C 
HETATM    9  O           1      34.912  31.539  -6.140  0.00  0.00    -0.271 OA
HETATM   10  N           1      32.963  32.099  -5.231  0.00  0.00    -0.368 N 
HETATM   11  H           1      33.442  32.734  -4.608  0.00  0.00     0.159 HD
HETATM   12  H           1      31.959  31.984  -5.187  0.00  0.00     0.159 HD
ENDBRANCH   7   8
BRANCH   7  13
HETATM   13  C           1      32.219  31.114  -8.217  0.00  0.00     0.030 C 
HETATM   14  C           1      32.796  32.467  -8.645  0.00  0.00     0.007 C 
ENDBRANCH   7  13
ENDBRANCH   1   7
BRANCH   4  15
HETATM   15  C           1      28.800  28.180  -5.295  0.00  0.00     0.054 C 
HETATM   16  C           1      27.946  27.172  -5.519  0.00  0.00     0.263 C 
HETATM   17  F           1      26.755  27.154  -4.945  0.00  0.00    -0.173 F 
HETATM   18  F           1      28.272  26.168  -6.315  0.00  0.00    -0.173 F 
ENDBRANCH   4  15
TORSDOF 4
ENDMDL
MODEL 9
REMARK VINA RESULT:      -4.5     11.063     12.463
REMARK  4 active torsions:
REMARK  status: ('A' for Active; 'I' for Inactive)
REMARK    1  A    between atoms: N_1  and  C_3 
REMARK    2  A    between atoms: C_3  and  C_4 
REMARK    3  A    between atoms: C_3  and  C_15 
REMARK       I    between atoms: C_4  and  N_12 
REMARK    4  A    between atoms: C_7  and  C_8 
ROOT
HETATM    1  N           1      31.453  34.339  27.097  0.00  0.00    -0.338 N 
HETATM    2  C           1      31.791  33.219  27.791  0.00  0.00     0.221 C 
HETATM    3  C           1      30.885  34.086  25.784  0.00  0.00     0.136 C 
HETATM    4  C           1      31.381  32.641  25.535  0.00  0.00     0.040 C 
HETATM    5  C           1      31.494  32.001  26.941  0.00  0.00     0.113 C 
HETATM    6  O           1      32.253  33.213  28.905  0.00  0.00    -0.273 OA
ENDROOT
BRANCH   1   7
HETATM    7  C           1      31.652  35.704  27.574  0.00  0.00     0.178 C 
BRANCH   7   8
HETATM    8  C           1      30.907  35.991  28.877  0.00  0.00     0.238 C 
HETATM    9  O           1      29.712  36.083  28.987  0.00  0.00    -0.271 OA
HETATM   10  N           1      31.708  36.161  29.963  0.00  0.00    -0.368 N 
HETATM   11  H           1      31.263  36.360  30.847  0.00  0.00     0.159 HD
HETATM   12  H           1      32.715  36.101  29.888  0.00  0.00     0.159 HD
ENDBRANCH   7   8
BRANCH   7  13
HETATM   13  C           1      31.478  36.759  26.466  0.00  0.00     0.030 C 
HETATM   14  C           1      31.505  38.216  26.943  0.00  0.00     0.007 C 
ENDBRANCH   7  13
ENDBRANCH   1   7
BRANCH   4  15
HETATM   15  C           1      30.531  31.833  24.589  0.00  0.00     0.054 C 
HETATM   16  C           1      29.234  31.567  24.796  0.00  0.00     0.263 C 
HETATM   17  F           1      28.539  30.867  23.915  0.00  0.00    -0.173 F 
HETATM   18  F           1      28.614  32.001  25.880  0.00  0.00    -0.173 F 
ENDBRANCH   4  15
TORSDOF 4
ENDMDL
