MODEL 1
REMARK VINA RESULT:      -7.7      0.000      0.000
REMARK  8 active torsions:
REMARK  status: ('A' for Active; 'I' for Inactive)
REMARK    1  A    between atoms: O_3  and  C_19 
REMARK    2  A    between atoms: O_3  and  C_20 
REMARK    3  A    between atoms: O_4  and  C_21 
REMARK    4  A    between atoms: O_5  and  C_33 
REMARK    5  A    between atoms: N_6  and  C_16 
REMARK    6  A    between atoms: N_8  and  C_29 
REMARK    7  A    between atoms: C_16  and  C_17 
REMARK    8  A    between atoms: C_17  and  C_19 
ROOT
HETATM    1  N   UNN     0      30.325  27.989  -4.741  0.00  0.00    -0.353 N 
HETATM    2  N   UNN     0      33.809  29.349  -6.136  0.00  0.00    -0.364 N 
HETATM    3  HN  UNN     0      34.705  29.692  -6.480  1.00  0.00     0.165 HD
HETATM    4  N   UNN     0      29.749  30.511  -7.517  0.00  0.00    -0.191 NA
HETATM    5  C   UNN     0      35.024  27.427  -3.521  0.00  0.00     0.104 A 
HETATM    6  C   UNN     0      33.884  26.955  -2.974  0.00  0.00     0.102 A 
HETATM    7  C   UNN     0      32.588  28.104  -4.639  0.00  0.00     0.022 A 
HETATM    8  C   UNN     0      34.927  28.260  -4.568  0.00  0.00     0.070 A 
HETATM    9  C   UNN     0      33.751  28.580  -5.134  0.00  0.00     0.047 A 
HETATM   10  C   UNN     0      32.719  27.293  -3.566  0.00  0.00     0.055 A 
HETATM   11  C   UNN     0      31.412  28.446  -5.237  0.00  0.00     0.067 A 
HETATM   12  C   UNN     0      31.516  29.281  -6.296  0.00  0.00     0.087 A 
HETATM   13  C   UNN     0      32.732  29.682  -6.701  0.00  0.00     0.113 A 
HETATM   14  C   UNN     0      30.553  29.905  -6.942  0.00  0.00     0.103 C 
HETATM   15  H   UNN     0      30.513  27.554  -3.809  0.00  0.00     0.166 HD
ENDROOT
BRANCH   1  16
HETATM   16  C   UNN     0      29.071  27.854  -4.939  0.00  0.00     0.057 A 
HETATM   17  C   UNN     0      28.455  26.951  -5.726  0.00  0.00     0.069 A 
HETATM   18  C   UNN     0      27.118  26.838  -5.876  0.00  0.00     0.092 A 
HETATM   19  C   UNN     0      26.369  27.701  -5.162  0.00  0.00     0.069 A 
HETATM   20 Cl   UNN     0      24.639  27.661  -5.265  0.00  0.00    -0.081 Cl
HETATM   21  C   UNN     0      26.932  28.597  -4.340  0.00  0.00     0.052 A 
HETATM   22  C   UNN     0      28.266  28.663  -4.216  0.00  0.00     0.062 A 
HETATM   23 Cl   UNN     0      28.885  29.877  -3.138  0.00  0.00    -0.082 Cl
BRANCH  18  24
HETATM   24  O   UNN     0      26.486  25.912  -6.676  0.00  0.00    -0.354 OA
HETATM   25  C   UNN     0      27.247  25.014  -7.448  0.00  0.00     0.210 C 
ENDBRANCH  18  24
ENDBRANCH   1  16
BRANCH   6  26
HETATM   26  O   UNN     0      33.999  26.148  -1.862  0.00  0.00    -0.353 OA
HETATM   27  C   UNN     0      33.481  26.581  -0.625  0.00  0.00     0.210 C 
ENDBRANCH   6  26
BRANCH   5  28
HETATM   28  O   UNN     0      36.242  27.164  -2.944  0.00  0.00    -0.348 OA
BRANCH  28  29
HETATM   29  C   UNN     0      37.342  27.520  -3.742  0.00  0.00     0.177 C 
BRANCH  29  30
HETATM   30  C   UNN     0      38.493  26.550  -3.478  0.00  0.00     0.057 C 
BRANCH  30  31
HETATM   31  C   UNN     0      38.015  25.115  -3.178  0.00  0.00     0.274 C 
BRANCH  31  32
HETATM   32  N   UNN     0      38.977  24.305  -2.438  0.00  0.00     0.091 N 
HETATM   33  C   UNN     0      39.042  24.720  -1.043  0.00  0.00     0.302 C 
HETATM   34  C   UNN     0      40.022  23.842  -0.247  0.00  0.00     0.302 C 
HETATM   35  N   UNN     0      41.354  23.899  -0.827  0.00  0.00     0.087 N 
HETATM   36  C   UNN     0      41.294  23.477  -2.218  0.00  0.00     0.302 C 
HETATM   37  C   UNN     0      42.296  23.091  -0.070  0.00  0.00     0.310 C 
HETATM   38  C   UNN     0      40.312  24.351  -3.016  0.00  0.00     0.302 C 
ENDBRANCH  31  32
ENDBRANCH  30  31
ENDBRANCH  29  30
ENDBRANCH  28  29
ENDBRANCH   5  28
TORSDOF 8
ENDMDL
MODEL 2
REMARK VINA RESULT:      -7.3      4.577     11.796
REMARK  8 active torsions:
REMARK  status: ('A' for Active; 'I' for Inactive)
REMARK    1  A    between atoms: O_3  and  C_19 
REMARK    2  A    between atoms: O_3  and  C_20 
REMARK    3  A    between atoms: O_4  and  C_21 
REMARK    4  A    between atoms: O_5  and  C_33 
REMARK    5  A    between atoms: N_6  and  C_16 
REMARK    6  A    between atoms: N_8  and  C_29 
REMARK    7  A    between atoms: C_16  and  C_17 
REMARK    8  A    between atoms: C_17  and  C_19 
ROOT
HETATM    1  N   UNN     0      29.809  28.035  -5.695  0.00  0.00    -0.353 N 
HETATM    2  N   UNN     0      26.077  28.687  -4.441  0.00  0.00    -0.364 N 
HETATM    3  HN  UNN     0      25.118  28.844  -4.132  1.00  0.00     0.165 HD
HETATM    4  N   UNN     0      29.605  31.304  -3.780  0.00  0.00    -0.191 NA
HETATM    5  C   UNN     0      25.492  25.830  -6.314  0.00  0.00     0.104 A 
HETATM    6  C   UNN     0      26.722  25.566  -6.804  0.00  0.00     0.102 A 
HETATM    7  C   UNN     0      27.615  27.465  -5.634  0.00  0.00     0.022 A 
HETATM    8  C   UNN     0      25.336  26.921  -5.549  0.00  0.00     0.070 A 
HETATM    9  C   UNN     0      26.362  27.712  -5.194  0.00  0.00     0.047 A 
HETATM   10  C   UNN     0      27.732  26.378  -6.428  0.00  0.00     0.055 A 
HETATM   11  C   UNN     0      28.636  28.286  -5.254  0.00  0.00     0.067 A 
HETATM   12  C   UNN     0      28.286  29.324  -4.462  0.00  0.00     0.087 A 
HETATM   13  C   UNN     0      27.005  29.460  -4.082  0.00  0.00     0.113 A 
HETATM   14  C   UNN     0      29.019  30.355  -4.096  0.00  0.00     0.103 C 
HETATM   15  H   UNN     0      29.761  27.315  -6.452  0.00  0.00     0.166 HD
ENDROOT
BRANCH   1  16
HETATM   16  C   UNN     0      31.047  28.325  -5.573  0.00  0.00     0.057 A 
HETATM   17  C   UNN     0      31.954  27.740  -4.768  0.00  0.00     0.069 A 
HETATM   18  C   UNN     0      33.261  28.074  -4.702  0.00  0.00     0.092 A 
HETATM   19  C   UNN     0      33.659  29.065  -5.523  0.00  0.00     0.069 A 
HETATM   20 Cl   UNN     0      35.311  29.589  -5.535  0.00  0.00    -0.081 Cl
HETATM   21  C   UNN     0      32.803  29.658  -6.366  0.00  0.00     0.052 A 
HETATM   22  C   UNN     0      31.515  29.283  -6.404  0.00  0.00     0.062 A 
HETATM   23 Cl   UNN     0      30.492  30.135  -7.520  0.00  0.00    -0.082 Cl
BRANCH  18  24
HETATM   24  O   UNN     0      34.192  27.473  -3.883  0.00  0.00    -0.354 OA
HETATM   25  C   UNN     0      33.892  26.247  -3.260  0.00  0.00     0.210 C 
ENDBRANCH  18  24
ENDBRANCH   1  16
BRANCH   6  26
HETATM   26  O   UNN     0      26.854  24.475  -7.637  0.00  0.00    -0.353 OA
HETATM   27  C   UNN     0      26.541  24.597  -9.005  0.00  0.00     0.210 C 
ENDBRANCH   6  26
BRANCH   5  28
HETATM   28  O   UNN     0      24.408  25.076  -6.692  0.00  0.00    -0.348 OA
BRANCH  28  29
HETATM   29  C   UNN     0      23.304  25.192  -5.832  0.00  0.00     0.177 C 
BRANCH  29  30
HETATM   30  C   UNN     0      22.920  23.807  -5.313  0.00  0.00     0.057 C 
BRANCH  30  31
HETATM   31  C   UNN     0      23.637  22.664  -6.060  0.00  0.00     0.274 C 
BRANCH  31  32
HETATM   32  N   UNN     0      22.741  21.761  -6.775  0.00  0.00     0.091 N 
HETATM   33  C   UNN     0      22.471  22.254  -8.119  0.00  0.00     0.302 C 
HETATM   34  C   UNN     0      21.563  21.285  -8.894  0.00  0.00     0.302 C 
HETATM   35  N   UNN     0      20.304  21.086  -8.193  0.00  0.00     0.087 N 
HETATM   36  C   UNN     0      20.570  20.585  -6.854  0.00  0.00     0.302 C 
HETATM   37  C   UNN     0      19.426  20.189  -8.928  0.00  0.00     0.310 C 
HETATM   38  C   UNN     0      21.481  21.550  -6.077  0.00  0.00     0.302 C 
ENDBRANCH  31  32
ENDBRANCH  30  31
ENDBRANCH  29  30
ENDBRANCH  28  29
ENDBRANCH   5  28
TORSDOF 8
ENDMDL
MODEL 3
REMARK VINA RESULT:      -6.5      2.435      3.147
REMARK  8 active torsions:
REMARK  status: ('A' for Active; 'I' for Inactive)
REMARK    1  A    between atoms: O_3  and  C_19 
REMARK    2  A    between atoms: O_3  and  C_20 
REMARK    3  A    between atoms: O_4  and  C_21 
REMARK    4  A    between atoms: O_5  and  C_33 
REMARK    5  A    between atoms: N_6  and  C_16 
REMARK    6  A    between atoms: N_8  and  C_29 
REMARK    7  A    between atoms: C_16  and  C_17 
REMARK    8  A    between atoms: C_17  and  C_19 
ROOT
HETATM    1  N   UNN     0      30.414  30.009  -4.868  0.00  0.00    -0.353 N 
HETATM    2  N   UNN     0      33.608  28.482  -6.710  0.00  0.00    -0.364 N 
HETATM    3  HN  UNN     0      34.431  28.089  -7.167  1.00  0.00     0.165 HD
HETATM    4  N   UNN     0      30.613  31.269  -8.441  0.00  0.00    -0.191 NA
HETATM    5  C   UNN     0      34.207  27.231  -3.533  0.00  0.00     0.104 A 
HETATM    6  C   UNN     0      33.169  27.741  -2.837  0.00  0.00     0.102 A 
HETATM    7  C   UNN     0      32.327  28.791  -4.828  0.00  0.00     0.022 A 
HETATM    8  C   UNN     0      34.315  27.548  -4.833  0.00  0.00     0.070 A 
HETATM    9  C   UNN     0      33.398  28.288  -5.478  0.00  0.00     0.047 A 
HETATM   10  C   UNN     0      32.264  28.478  -3.514  0.00  0.00     0.055 A 
HETATM   11  C   UNN     0      31.412  29.536  -5.512  0.00  0.00     0.067 A 
HETATM   12  C   UNN     0      31.682  29.732  -6.822  0.00  0.00     0.087 A 
HETATM   13  C   UNN     0      32.778  29.172  -7.360  0.00  0.00     0.113 A 
HETATM   14  C   UNN     0      31.080  30.542  -7.667  0.00  0.00     0.103 C 
HETATM   15  H   UNN     0      30.563  29.891  -3.840  0.00  0.00     0.166 HD
ENDROOT
BRANCH   1  16
HETATM   16  C   UNN     0      29.280  30.583  -4.989  0.00  0.00     0.057 A 
HETATM   17  C   UNN     0      29.032  31.903  -5.086  0.00  0.00     0.069 A 
HETATM   18  C   UNN     0      27.808  32.452  -5.241  0.00  0.00     0.092 A 
HETATM   19  C   UNN     0      26.777  31.587  -5.311  0.00  0.00     0.069 A 
HETATM   20 Cl   UNN     0      25.155  32.163  -5.508  0.00  0.00    -0.081 Cl
HETATM   21  C   UNN     0      26.974  30.263  -5.252  0.00  0.00     0.052 A 
HETATM   22  C   UNN     0      28.212  29.764  -5.110  0.00  0.00     0.062 A 
HETATM   23 Cl   UNN     0      28.345  28.034  -5.024  0.00  0.00    -0.082 Cl
BRANCH  18  24
HETATM   24  O   UNN     0      27.552  33.802  -5.346  0.00  0.00    -0.354 OA
HETATM   25  C   UNN     0      28.607  34.699  -5.599  0.00  0.00     0.210 C 
ENDBRANCH  18  24
ENDBRANCH   1  16
BRANCH   6  26
HETATM   26  O   UNN     0      33.105  27.453  -1.491  0.00  0.00    -0.353 OA
HETATM   27  C   UNN     0      33.495  28.425  -0.548  0.00  0.00     0.210 C 
ENDBRANCH   6  26
BRANCH   5  28
HETATM   28  O   UNN     0      35.192  26.512  -2.902  0.00  0.00    -0.348 OA
BRANCH  28  29
HETATM   29  C   UNN     0      35.476  25.277  -3.507  0.00  0.00     0.177 C 
BRANCH  29  30
HETATM   30  C   UNN     0      36.853  24.795  -3.051  0.00  0.00     0.057 C 
BRANCH  30  31
HETATM   31  C   UNN     0      37.898  25.927  -2.993  0.00  0.00     0.274 C 
BRANCH  31  32
HETATM   32  N   UNN     0      39.244  25.482  -2.648  0.00  0.00     0.091 N 
HETATM   33  C   UNN     0      40.143  25.611  -3.787  0.00  0.00     0.302 C 
HETATM   34  C   UNN     0      41.573  25.185  -3.417  0.00  0.00     0.302 C 
HETATM   35  N   UNN     0      41.596  23.812  -2.941  0.00  0.00     0.087 N 
HETATM   36  C   UNN     0      40.706  23.681  -1.798  0.00  0.00     0.302 C 
HETATM   37  C   UNN     0      42.947  23.388  -2.610  0.00  0.00     0.310 C 
HETATM   38  C   UNN     0      39.275  24.110  -2.163  0.00  0.00     0.302 C 
ENDBRANCH  31  32
ENDBRANCH  30  31
ENDBRANCH  29  30
ENDBRANCH  28  29
ENDBRANCH   5  28
TORSDOF 8
ENDMDL
MODEL 4
REMARK VINA RESULT:      -6.5      6.955      9.716
REMARK  8 active torsions:
REMARK  status: ('A' for Active; 'I' for Inactive)
REMARK    1  A    between atoms: O_3  and  C_19 
REMARK    2  A    between atoms: O_3  and  C_20 
REMARK    3  A    between atoms: O_4  and  C_21 
REMARK    4  A    between atoms: O_5  and  C_33 
REMARK    5  A    between atoms: N_6  and  C_16 
REMARK    6  A    between atoms: N_8  and  C_29 
REMARK    7  A    between atoms: C_16  and  C_17 
REMARK    8  A    between atoms: C_17  and  C_19 
ROOT
HETATM    1  N   UNN     0      23.600  25.322  -7.137  0.00  0.00    -0.353 N 
HETATM    2  N   UNN     0      27.363  26.343  -6.286  0.00  0.00    -0.364 N 
HETATM    3  HN  UNN     0      28.319  26.617  -6.062  1.00  0.00     0.165 HD
HETATM    4  N   UNN     0      26.022  23.444  -9.374  0.00  0.00    -0.191 NA
HETATM    5  C   UNN     0      25.743  28.580  -4.192  0.00  0.00     0.104 A 
HETATM    6  C   UNN     0      24.446  28.312  -4.454  0.00  0.00     0.102 A 
HETATM    7  C   UNN     0      25.096  26.599  -6.008  0.00  0.00     0.022 A 
HETATM    8  C   UNN     0      26.680  27.901  -4.871  0.00  0.00     0.070 A 
HETATM    9  C   UNN     0      26.380  26.923  -5.741  0.00  0.00     0.047 A 
HETATM   10  C   UNN     0      24.177  27.322  -5.331  0.00  0.00     0.055 A 
HETATM   11  C   UNN     0      24.824  25.599  -6.894  0.00  0.00     0.067 A 
HETATM   12  C   UNN     0      25.902  25.016  -7.465  0.00  0.00     0.087 A 
HETATM   13  C   UNN     0      27.134  25.419  -7.112  0.00  0.00     0.113 A 
HETATM   14  C   UNN     0      25.934  24.163  -8.467  0.00  0.00     0.103 C 
HETATM   15  H   UNN     0      22.979  26.060  -6.733  0.00  0.00     0.166 HD
ENDROOT
BRANCH   1  16
HETATM   16  C   UNN     0      22.818  24.479  -7.692  0.00  0.00     0.057 A 
HETATM   17  C   UNN     0      22.420  23.285  -7.213  0.00  0.00     0.069 A 
HETATM   18  C   UNN     0      21.567  22.444  -7.836  0.00  0.00     0.092 A 
HETATM   19  C   UNN     0      21.084  22.866  -9.022  0.00  0.00     0.069 A 
HETATM   20 Cl   UNN     0      19.980  21.880  -9.924  0.00  0.00    -0.081 Cl
HETATM   21  C   UNN     0      21.424  24.059  -9.528  0.00  0.00     0.052 A 
HETATM   22  C   UNN     0      22.267  24.865  -8.864  0.00  0.00     0.062 A 
HETATM   23 Cl   UNN     0      22.651  26.379  -9.624  0.00  0.00    -0.082 Cl
BRANCH  18  24
HETATM   24  O   UNN     0      21.154  21.225  -7.345  0.00  0.00    -0.354 OA
HETATM   25  C   UNN     0      22.096  20.204  -7.120  0.00  0.00     0.210 C 
ENDBRANCH  18  24
ENDBRANCH   1  16
BRANCH   6  26
HETATM   26  O   UNN     0      23.496  29.059  -3.791  0.00  0.00    -0.353 OA
HETATM   27  C   UNN     0      22.129  28.770  -3.968  0.00  0.00     0.210 C 
ENDBRANCH   6  26
BRANCH   5  28
HETATM   28  O   UNN     0      26.092  29.605  -3.347  0.00  0.00    -0.348 OA
BRANCH  28  29
HETATM   29  C   UNN     0      27.084  29.264  -2.413  0.00  0.00     0.177 C 
BRANCH  29  30
HETATM   30  C   UNN     0      28.199  30.309  -2.455  0.00  0.00     0.057 C 
BRANCH  30  31
HETATM   31  C   UNN     0      29.584  29.700  -2.750  0.00  0.00     0.274 C 
BRANCH  31  32
HETATM   32  N   UNN     0      30.138  30.072  -4.048  0.00  0.00     0.091 N 
HETATM   33  C   UNN     0      29.370  31.153  -4.651  0.00  0.00     0.302 C 
HETATM   34  C   UNN     0      29.974  31.580  -5.999  0.00  0.00     0.302 C 
HETATM   35  N   UNN     0      30.026  30.456  -6.920  0.00  0.00     0.087 N 
HETATM   36  C   UNN     0      30.800  29.378  -6.325  0.00  0.00     0.302 C 
HETATM   37  C   UNN     0      30.574  30.852  -8.207  0.00  0.00     0.310 C 
HETATM   38  C   UNN     0      30.200  28.951  -4.975  0.00  0.00     0.302 C 
ENDBRANCH  31  32
ENDBRANCH  30  31
ENDBRANCH  29  30
ENDBRANCH  28  29
ENDBRANCH   5  28
TORSDOF 8
ENDMDL
MODEL 5
REMARK VINA RESULT:      -6.3     38.932     41.190
REMARK  8 active torsions:
REMARK  status: ('A' for Active; 'I' for Inactive)
REMARK    1  A    between atoms: O_3  and  C_19 
REMARK    2  A    between atoms: O_3  and  C_20 
REMARK    3  A    between atoms: O_4  and  C_21 
REMARK    4  A    between atoms: O_5  and  C_33 
REMARK    5  A    between atoms: N_6  and  C_16 
REMARK    6  A    between atoms: N_8  and  C_29 
REMARK    7  A    between atoms: C_16  and  C_17 
REMARK    8  A    between atoms: C_17  and  C_19 
ROOT
HETATM    1  N   UNN     0      18.529  56.434  24.403  0.00  0.00    -0.353 N 
HETATM    2  N   UNN     0      22.118  54.987  25.377  0.00  0.00    -0.364 N 
HETATM    3  HN  UNN     0      23.032  54.603  25.620  1.00  0.00     0.165 HD
HETATM    4  N   UNN     0      20.027  58.420  27.268  0.00  0.00    -0.191 NA
HETATM    5  C   UNN     0      21.230  52.601  23.025  0.00  0.00     0.104 A 
HETATM    6  C   UNN     0      19.995  53.013  22.670  0.00  0.00     0.102 A 
HETATM    7  C   UNN     0      20.166  54.881  24.171  0.00  0.00     0.022 A 
HETATM    8  C   UNN     0      21.881  53.295  23.972  0.00  0.00     0.070 A 
HETATM    9  C   UNN     0      21.384  54.415  24.521  0.00  0.00     0.047 A 
HETATM   10  C   UNN     0      19.524  54.143  23.238  0.00  0.00     0.055 A 
HETATM   11  C   UNN     0      19.690  56.023  24.745  0.00  0.00     0.067 A 
HETATM   12  C   UNN     0      20.499  56.594  25.665  0.00  0.00     0.087 A 
HETATM   13  C   UNN     0      21.696  56.041  25.924  0.00  0.00     0.113 A 
HETATM   14  C   UNN     0      20.227  57.583  26.491  0.00  0.00     0.103 C 
HETATM   15  H   UNN     0      18.038  55.698  23.846  0.00  0.00     0.166 HD
ENDROOT
BRANCH   1  16
HETATM   16  C   UNN     0      17.713  57.413  24.476  0.00  0.00     0.057 A 
HETATM   17  C   UNN     0      16.631  57.526  25.270  0.00  0.00     0.069 A 
HETATM   18  C   UNN     0      15.817  58.602  25.323  0.00  0.00     0.092 A 
HETATM   19  C   UNN     0      16.145  59.630  24.515  0.00  0.00     0.069 A 
HETATM   20 Cl   UNN     0      15.181  61.071  24.487  0.00  0.00    -0.081 Cl
HETATM   21  C   UNN     0      17.229  59.581  23.729  0.00  0.00     0.052 A 
HETATM   22  C   UNN     0      18.014  58.493  23.720  0.00  0.00     0.062 A 
HETATM   23 Cl   UNN     0      19.380  58.532  22.648  0.00  0.00    -0.082 Cl
BRANCH  18  24
HETATM   24  O   UNN     0      14.714  58.723  26.139  0.00  0.00    -0.354 OA
HETATM   25  C   UNN     0      13.501  58.109  25.774  0.00  0.00     0.210 C 
ENDBRANCH  18  24
ENDBRANCH   1  16
BRANCH   6  26
HETATM   26  O   UNN     0      19.316  52.255  21.739  0.00  0.00    -0.353 OA
HETATM   27  C   UNN     0      18.226  51.460  22.144  0.00  0.00     0.210 C 
ENDBRANCH   6  26
BRANCH   5  28
HETATM   28  O   UNN     0      21.754  51.435  22.524  0.00  0.00    -0.348 OA
BRANCH  28  29
HETATM   29  C   UNN     0      21.725  50.361  23.428  0.00  0.00     0.177 C 
BRANCH  29  30
HETATM   30  C   UNN     0      21.131  49.134  22.737  0.00  0.00     0.057 C 
BRANCH  30  31
HETATM   31  C   UNN     0      22.161  48.006  22.522  0.00  0.00     0.274 C 
BRANCH  31  32
HETATM   32  N   UNN     0      21.573  46.681  22.358  0.00  0.00     0.091 N 
HETATM   33  C   UNN     0      22.582  45.709  21.962  0.00  0.00     0.302 C 
HETATM   34  C   UNN     0      21.977  44.302  21.830  0.00  0.00     0.302 C 
HETATM   35  N   UNN     0      20.895  44.293  20.859  0.00  0.00     0.087 N 
HETATM   36  C   UNN     0      19.881  45.257  21.257  0.00  0.00     0.302 C 
HETATM   37  C   UNN     0      20.329  42.962  20.708  0.00  0.00     0.310 C 
HETATM   38  C   UNN     0      20.483  46.665  21.393  0.00  0.00     0.302 C 
ENDBRANCH  31  32
ENDBRANCH  30  31
ENDBRANCH  29  30
ENDBRANCH  28  29
ENDBRANCH   5  28
TORSDOF 8
ENDMDL
MODEL 6
REMARK VINA RESULT:      -6.3      7.406     11.920
REMARK  8 active torsions:
REMARK  status: ('A' for Active; 'I' for Inactive)
REMARK    1  A    between atoms: O_3  and  C_19 
REMARK    2  A    between atoms: O_3  and  C_20 
REMARK    3  A    between atoms: O_4  and  C_21 
REMARK    4  A    between atoms: O_5  and  C_33 
REMARK    5  A    between atoms: N_6  and  C_16 
REMARK    6  A    between atoms: N_8  and  C_29 
REMARK    7  A    between atoms: C_16  and  C_17 
REMARK    8  A    between atoms: C_17  and  C_19 
ROOT
HETATM    1  N   UNN     0      25.984  29.016  -4.096  0.00  0.00    -0.353 N 
HETATM    2  N   UNN     0      28.722  26.771  -5.938  0.00  0.00    -0.364 N 
HETATM    3  HN  UNN     0      29.411  26.186  -6.412  1.00  0.00     0.165 HD
HETATM    4  N   UNN     0      29.474  29.990  -2.971  0.00  0.00    -0.191 NA
HETATM    5  C   UNN     0      25.879  25.188  -7.133  0.00  0.00     0.104 A 
HETATM    6  C   UNN     0      24.899  25.883  -6.517  0.00  0.00     0.102 A 
HETATM    7  C   UNN     0      26.535  27.294  -5.465  0.00  0.00     0.022 A 
HETATM    8  C   UNN     0      27.153  25.518  -6.867  0.00  0.00     0.070 A 
HETATM    9  C   UNN     0      27.484  26.551  -6.075  0.00  0.00     0.047 A 
HETATM   10  C   UNN     0      25.264  26.916  -5.730  0.00  0.00     0.055 A 
HETATM   11  C   UNN     0      26.904  28.338  -4.670  0.00  0.00     0.067 A 
HETATM   12  C   UNN     0      28.236  28.529  -4.538  0.00  0.00     0.087 A 
HETATM   13  C   UNN     0      29.085  27.728  -5.203  0.00  0.00     0.113 A 
HETATM   14  C   UNN     0      28.868  29.333  -3.709  0.00  0.00     0.103 C 
HETATM   15  H   UNN     0      25.065  28.527  -4.193  0.00  0.00     0.166 HD
ENDROOT
BRANCH   1  16
HETATM   16  C   UNN     0      25.741  30.081  -3.435  0.00  0.00     0.057 A 
HETATM   17  C   UNN     0      25.649  31.339  -3.905  0.00  0.00     0.069 A 
HETATM   18  C   UNN     0      25.361  32.427  -3.158  0.00  0.00     0.092 A 
HETATM   19  C   UNN     0      25.143  32.202  -1.848  0.00  0.00     0.069 A 
HETATM   20 Cl   UNN     0      24.764  33.513  -0.780  0.00  0.00    -0.081 Cl
HETATM   21  C   UNN     0      25.190  30.964  -1.336  0.00  0.00     0.052 A 
HETATM   22  C   UNN     0      25.469  29.913  -2.122  0.00  0.00     0.062 A 
HETATM   23 Cl   UNN     0      25.524  28.359  -1.346  0.00  0.00    -0.082 Cl
BRANCH  18  24
HETATM   24  O   UNN     0      25.262  33.714  -3.638  0.00  0.00    -0.354 OA
HETATM   25  C   UNN     0      24.234  34.051  -4.539  0.00  0.00     0.210 C 
ENDBRANCH  18  24
ENDBRANCH   1  16
BRANCH   6  26
HETATM   26  O   UNN     0      23.598  25.493  -6.755  0.00  0.00    -0.353 OA
HETATM   27  C   UNN     0      22.777  25.100  -5.680  0.00  0.00     0.210 C 
ENDBRANCH   6  26
BRANCH   5  28
HETATM   28  O   UNN     0      25.585  24.095  -7.910  0.00  0.00    -0.348 OA
BRANCH  28  29
HETATM   29  C   UNN     0      26.290  24.050  -9.124  0.00  0.00     0.177 C 
BRANCH  29  30
HETATM   30  C   UNN     0      25.339  23.636 -10.246  0.00  0.00     0.057 C 
BRANCH  30  31
HETATM   31  C   UNN     0      23.882  24.074  -9.992  0.00  0.00     0.274 C 
BRANCH  31  32
HETATM   32  N   UNN     0      22.921  22.975  -9.973  0.00  0.00     0.091 N 
HETATM   33  C   UNN     0      21.669  23.368 -10.606  0.00  0.00     0.302 C 
HETATM   34  C   UNN     0      20.669  22.201 -10.627  0.00  0.00     0.302 C 
HETATM   35  N   UNN     0      20.398  21.728  -9.279  0.00  0.00     0.087 N 
HETATM   36  C   UNN     0      21.645  21.327  -8.647  0.00  0.00     0.302 C 
HETATM   37  C   UNN     0      19.434  20.639  -9.284  0.00  0.00     0.310 C 
HETATM   38  C   UNN     0      22.649  22.491  -8.627  0.00  0.00     0.302 C 
ENDBRANCH  31  32
ENDBRANCH  30  31
ENDBRANCH  29  30
ENDBRANCH  28  29
ENDBRANCH   5  28
TORSDOF 8
ENDMDL
MODEL 7
REMARK VINA RESULT:      -6.3     33.638     36.430
REMARK  8 active torsions:
REMARK  status: ('A' for Active; 'I' for Inactive)
REMARK    1  A    between atoms: O_3  and  C_19 
REMARK    2  A    between atoms: O_3  and  C_20 
REMARK    3  A    between atoms: O_4  and  C_21 
REMARK    4  A    between atoms: O_5  and  C_33 
REMARK    5  A    between atoms: N_6  and  C_16 
REMARK    6  A    between atoms: N_8  and  C_29 
REMARK    7  A    between atoms: C_16  and  C_17 
REMARK    8  A    between atoms: C_17  and  C_19 
ROOT
HETATM    1  N   UNN     0      23.396  45.417  20.620  0.00  0.00    -0.353 N 
HETATM    2  N   UNN     0      20.209  46.512  22.759  0.00  0.00    -0.364 N 
HETATM    3  HN  UNN     0      19.399  46.806  23.304  1.00  0.00     0.165 HD
HETATM    4  N   UNN     0      22.156  42.518  22.732  0.00  0.00    -0.191 NA
HETATM    5  C   UNN     0      20.982  49.597  21.382  0.00  0.00     0.104 A 
HETATM    6  C   UNN     0      22.086  49.308  20.662  0.00  0.00     0.102 A 
HETATM    7  C   UNN     0      21.939  47.004  21.330  0.00  0.00     0.022 A 
HETATM    8  C   UNN     0      20.415  48.612  22.096  0.00  0.00     0.070 A 
HETATM    9  C   UNN     0      20.858  47.345  22.063  0.00  0.00     0.047 A 
HETATM   10  C   UNN     0      22.505  48.025  20.647  0.00  0.00     0.055 A 
HETATM   11  C   UNN     0      22.363  45.708  21.315  0.00  0.00     0.067 A 
HETATM   12  C   UNN     0      21.651  44.853  22.083  0.00  0.00     0.087 A 
HETATM   13  C   UNN     0      20.586  45.309  22.763  0.00  0.00     0.113 A 
HETATM   14  C   UNN     0      21.933  43.605  22.393  0.00  0.00     0.103 C 
HETATM   15  H   UNN     0      23.874  46.291  20.306  0.00  0.00     0.166 HD
ENDROOT
BRANCH   1  16
HETATM   16  C   UNN     0      24.091  44.454  20.149  0.00  0.00     0.057 A 
HETATM   17  C   UNN     0      23.689  43.483  19.308  0.00  0.00     0.069 A 
HETATM   18  C   UNN     0      24.479  42.503  18.820  0.00  0.00     0.092 A 
HETATM   19  C   UNN     0      25.767  42.533  19.216  0.00  0.00     0.069 A 
HETATM   20 Cl   UNN     0      26.887  41.331  18.662  0.00  0.00    -0.081 Cl
HETATM   21  C   UNN     0      26.225  43.496  20.027  0.00  0.00     0.052 A 
HETATM   22  C   UNN     0      25.402  44.456  20.476  0.00  0.00     0.062 A 
HETATM   23 Cl   UNN     0      26.101  45.641  21.537  0.00  0.00    -0.082 Cl
BRANCH  18  24
HETATM   24  O   UNN     0      24.071  41.512  17.955  0.00  0.00    -0.354 OA
HETATM   25  C   UNN     0      23.345  41.846  16.797  0.00  0.00     0.210 C 
ENDBRANCH  18  24
ENDBRANCH   1  16
BRANCH   6  26
HETATM   26  O   UNN     0      22.691  50.343  19.981  0.00  0.00    -0.353 OA
HETATM   27  C   UNN     0      22.607  50.401  18.576  0.00  0.00     0.210 C 
ENDBRANCH   6  26
BRANCH   5  28
HETATM   28  O   UNN     0      20.527  50.889  21.482  0.00  0.00    -0.348 OA
BRANCH  28  29
HETATM   29  C   UNN     0      20.684  51.453  22.759  0.00  0.00     0.177 C 
BRANCH  29  30
HETATM   30  C   UNN     0      21.210  52.882  22.618  0.00  0.00     0.057 C 
BRANCH  30  31
HETATM   31  C   UNN     0      21.699  53.477  23.955  0.00  0.00     0.274 C 
BRANCH  31  32
HETATM   32  N   UNN     0      21.086  54.755  24.301  0.00  0.00     0.091 N 
HETATM   33  C   UNN     0      21.420  55.140  25.665  0.00  0.00     0.302 C 
HETATM   34  C   UNN     0      20.814  56.507  26.021  0.00  0.00     0.302 C 
HETATM   35  N   UNN     0      19.368  56.486  25.869  0.00  0.00     0.087 N 
HETATM   36  C   UNN     0      19.031  56.111  24.505  0.00  0.00     0.302 C 
HETATM   37  C   UNN     0      18.779  57.767  26.225  0.00  0.00     0.310 C 
HETATM   38  C   UNN     0      19.639  54.745  24.144  0.00  0.00     0.302 C 
ENDBRANCH  31  32
ENDBRANCH  30  31
ENDBRANCH  29  30
ENDBRANCH  28  29
ENDBRANCH   5  28
TORSDOF 8
ENDMDL
MODEL 8
REMARK VINA RESULT:      -6.2     31.531     34.388
REMARK  8 active torsions:
REMARK  status: ('A' for Active; 'I' for Inactive)
REMARK    1  A    between atoms: O_3  and  C_19 
REMARK    2  A    between atoms: O_3  and  C_20 
REMARK    3  A    between atoms: O_4  and  C_21 
REMARK    4  A    between atoms: O_5  and  C_33 
REMARK    5  A    between atoms: N_6  and  C_16 
REMARK    6  A    between atoms: N_8  and  C_29 
REMARK    7  A    between atoms: C_16  and  C_17 
REMARK    8  A    between atoms: C_17  and  C_19 
ROOT
HETATM    1  N   UNN     0      18.648  29.293  29.408  0.00  0.00    -0.353 N 
HETATM    2  N   UNN     0      20.700  32.115  27.469  0.00  0.00    -0.364 N 
HETATM    3  HN  UNN     0      21.227  32.825  26.963  1.00  0.00     0.165 HD
HETATM    4  N   UNN     0      19.695  32.050  31.796  0.00  0.00    -0.191 NA
HETATM    5  C   UNN     0      20.363  29.851  24.866  0.00  0.00     0.104 A 
HETATM    6  C   UNN     0      19.698  28.841  25.465  0.00  0.00     0.102 A 
HETATM    7  C   UNN     0      19.648  30.073  27.528  0.00  0.00     0.022 A 
HETATM    8  C   UNN     0      20.702  30.916  25.610  0.00  0.00     0.070 A 
HETATM    9  C   UNN     0      20.342  31.045  26.898  0.00  0.00     0.047 A 
HETATM   10  C   UNN     0      19.350  29.001  26.759  0.00  0.00     0.055 A 
HETATM   11  C   UNN     0      19.296  30.235  28.835  0.00  0.00     0.067 A 
HETATM   12  C   UNN     0      19.710  31.385  29.412  0.00  0.00     0.087 A 
HETATM   13  C   UNN     0      20.389  32.283  28.679  0.00  0.00     0.113 A 
HETATM   14  C   UNN     0      19.668  31.722  30.684  0.00  0.00     0.103 C 
HETATM   15  H   UNN     0      18.650  28.439  28.806  0.00  0.00     0.166 HD
ENDROOT
BRANCH   1  16
HETATM   16  C   UNN     0      17.985  28.978  30.453  0.00  0.00     0.057 A 
HETATM   17  C   UNN     0      18.469  28.618  31.657  0.00  0.00     0.069 A 
HETATM   18  C   UNN     0      17.716  28.321  32.738  0.00  0.00     0.092 A 
HETATM   19  C   UNN     0      16.381  28.410  32.570  0.00  0.00     0.069 A 
HETATM   20 Cl   UNN     0      15.303  28.054  33.879  0.00  0.00    -0.081 Cl
HETATM   21  C   UNN     0      15.850  28.794  31.401  0.00  0.00     0.052 A 
HETATM   22  C   UNN     0      16.642  29.091  30.359  0.00  0.00     0.062 A 
HETATM   23 Cl   UNN     0      15.844  29.557  28.888  0.00  0.00    -0.082 Cl
BRANCH  18  24
HETATM   24  O   UNN     0      18.208  27.958  33.973  0.00  0.00    -0.354 OA
HETATM   25  C   UNN     0      18.728  26.666  34.169  0.00  0.00     0.210 C 
ENDBRANCH  18  24
ENDBRANCH   1  16
BRANCH   6  26
HETATM   26  O   UNN     0      19.410  27.729  24.702  0.00  0.00    -0.353 OA
HETATM   27  C   UNN     0      18.151  27.107  24.818  0.00  0.00     0.210 C 
ENDBRANCH   6  26
BRANCH   5  28
HETATM   28  O   UNN     0      20.792  29.738  23.566  0.00  0.00    -0.348 OA
BRANCH  28  29
HETATM   29  C   UNN     0      22.189  29.698  23.427  0.00  0.00     0.177 C 
BRANCH  29  30
HETATM   30  C   UNN     0      22.621  30.717  22.373  0.00  0.00     0.057 C 
BRANCH  30  31
HETATM   31  C   UNN     0      21.473  31.127  21.427  0.00  0.00     0.274 C 
BRANCH  31  32
HETATM   32  N   UNN     0      21.768  30.937  20.010  0.00  0.00     0.091 N 
HETATM   33  C   UNN     0      22.356  29.627  19.772  0.00  0.00     0.302 C 
HETATM   34  C   UNN     0      22.629  29.403  18.276  0.00  0.00     0.302 C 
HETATM   35  N   UNN     0      23.517  30.430  17.754  0.00  0.00     0.087 N 
HETATM   36  C   UNN     0      22.928  31.740  17.982  0.00  0.00     0.302 C 
HETATM   37  C   UNN     0      23.802  30.217  16.344  0.00  0.00     0.310 C 
HETATM   38  C   UNN     0      22.651  31.965  19.478  0.00  0.00     0.302 C 
ENDBRANCH  31  32
ENDBRANCH  30  31
ENDBRANCH  29  30
ENDBRANCH  28  29
ENDBRANCH   5  28
TORSDOF 8
ENDMDL
MODEL 9
REMARK VINA RESULT:      -6.2     37.979     40.452
REMARK  8 active torsions:
REMARK  status: ('A' for Active; 'I' for Inactive)
REMARK    1  A    between atoms: O_3  and  C_19 
REMARK    2  A    between atoms: O_3  and  C_20 
REMARK    3  A    between atoms: O_4  and  C_21 
REMARK    4  A    between atoms: O_5  and  C_33 
REMARK    5  A    between atoms: N_6  and  C_16 
REMARK    6  A    between atoms: N_8  and  C_29 
REMARK    7  A    between atoms: C_16  and  C_17 
REMARK    8  A    between atoms: C_17  and  C_19 
ROOT
HETATM    1  N   UNN     0      22.176  55.341  24.574  0.00  0.00    -0.353 N 
HETATM    2  N   UNN     0      18.346  54.563  23.767  0.00  0.00    -0.364 N 
HETATM    3  HN  UNN     0      17.372  54.353  23.552  1.00  0.00     0.165 HD
HETATM    4  N   UNN     0      20.045  58.425  25.158  0.00  0.00    -0.191 NA
HETATM    5  C   UNN     0      19.704  51.542  22.746  0.00  0.00     0.104 A 
HETATM    6  C   UNN     0      21.021  51.746  22.961  0.00  0.00     0.102 A 
HETATM    7  C   UNN     0      20.560  53.949  23.804  0.00  0.00     0.022 A 
HETATM    8  C   UNN     0      18.856  52.549  23.008  0.00  0.00     0.070 A 
HETATM    9  C   UNN     0      19.256  53.715  23.540  0.00  0.00     0.047 A 
HETATM   10  C   UNN     0      21.391  52.928  23.499  0.00  0.00     0.055 A 
HETATM   11  C   UNN     0      20.934  55.142  24.347  0.00  0.00     0.067 A 
HETATM   12  C   UNN     0      19.933  56.026  24.559  0.00  0.00     0.087 A 
HETATM   13  C   UNN     0      18.670  55.675  24.265  0.00  0.00     0.113 A 
HETATM   14  C   UNN     0      20.022  57.294  24.901  0.00  0.00     0.103 C 
HETATM   15  H   UNN     0      22.748  54.591  24.121  0.00  0.00     0.166 HD
ENDROOT
BRANCH   1  16
HETATM   16  C   UNN     0      23.015  56.113  25.151  0.00  0.00     0.057 A 
HETATM   17  C   UNN     0      23.053  56.463  26.450  0.00  0.00     0.069 A 
HETATM   18  C   UNN     0      23.984  57.265  27.010  0.00  0.00     0.092 A 
HETATM   19  C   UNN     0      24.941  57.727  26.180  0.00  0.00     0.069 A 
HETATM   20 Cl   UNN     0      26.194  58.767  26.774  0.00  0.00    -0.081 Cl
HETATM   21  C   UNN     0      24.966  57.383  24.886  0.00  0.00     0.052 A 
HETATM   22  C   UNN     0      24.025  56.572  24.378  0.00  0.00     0.062 A 
HETATM   23 Cl   UNN     0      24.145  56.210  22.684  0.00  0.00    -0.082 Cl
BRANCH  18  24
HETATM   24  O   UNN     0      24.028  57.620  28.340  0.00  0.00    -0.354 OA
HETATM   25  C   UNN     0      23.384  58.794  28.776  0.00  0.00     0.210 C 
ENDBRANCH  18  24
ENDBRANCH   1  16
BRANCH   6  26
HETATM   26  O   UNN     0      21.885  50.724  22.632  0.00  0.00    -0.353 OA
HETATM   27  C   UNN     0      22.270  49.788  23.612  0.00  0.00     0.210 C 
ENDBRANCH   6  26
BRANCH   5  28
HETATM   28  O   UNN     0      19.260  50.384  22.157  0.00  0.00    -0.348 OA
BRANCH  28  29
HETATM   29  C   UNN     0      18.814  50.550  20.835  0.00  0.00     0.177 C 
BRANCH  29  30
HETATM   30  C   UNN     0      19.001  49.239  20.071  0.00  0.00     0.057 C 
BRANCH  30  31
HETATM   31  C   UNN     0      20.406  48.630  20.255  0.00  0.00     0.274 C 
BRANCH  31  32
HETATM   32  N   UNN     0      20.402  47.233  20.675  0.00  0.00     0.091 N 
HETATM   33  C   UNN     0      20.665  47.118  22.103  0.00  0.00     0.302 C 
HETATM   34  C   UNN     0      20.620  45.651  22.560  0.00  0.00     0.302 C 
HETATM   35  N   UNN     0      21.589  44.852  21.828  0.00  0.00     0.087 N 
HETATM   36  C   UNN     0      21.323  44.957  20.401  0.00  0.00     0.302 C 
HETATM   37  C   UNN     0      21.572  43.466  22.267  0.00  0.00     0.310 C 
HETATM   38  C   UNN     0      21.365  46.424  19.941  0.00  0.00     0.302 C 
ENDBRANCH  31  32
ENDBRANCH  30  31
ENDBRANCH  29  30
ENDBRANCH  28  29
ENDBRANCH   5  28
TORSDOF 8
ENDMDL
