MODEL 1
REMARK VINA RESULT:      -5.4      0.000      0.000
REMARK  13 active torsions:
REMARK  status: ('A' for Active; 'I' for Inactive)
REMARK    1  A    between atoms: O_1  and  C_19 
REMARK    2  A    between atoms: O_2  and  C_23 
REMARK    3  A    between atoms: O_3  and  C_27 
REMARK    4  A    between atoms: O_4  and  C_30 
REMARK    5  A    between atoms: N_5  and  C_12 
REMARK    6  A    between atoms: N_5  and  C_18 
REMARK    7  A    between atoms: C_7  and  C_8 
REMARK    8  A    between atoms: C_7  and  C_9 
REMARK    9  A    between atoms: C_7  and  C_11 
REMARK   10  A    between atoms: C_9  and  C_10 
REMARK   11  A    between atoms: C_10  and  C_12 
REMARK   12  A    between atoms: C_18  and  C_22 
REMARK   13  A    between atoms: C_22  and  C_24 
ROOT
HETATM    1  N   UNN     0      33.432  29.980  -2.075  0.00  0.00    -0.196 NA
HETATM    2  C   UNN     0      32.690  28.655  -4.237  0.00  0.00     0.079 C 
HETATM    3  C   UNN     0      33.100  29.403  -3.023  0.00  0.00     0.074 C 
ENDROOT
BRANCH   2   4
HETATM    4  C   UNN     0      33.277  29.399  -5.470  0.00  0.00     0.004 C 
HETATM    5  C   UNN     0      32.694  30.809  -5.690  0.00  0.00     0.011 C 
HETATM    6  C   UNN     0      33.122  28.579  -6.766  0.00  0.00     0.011 C 
ENDBRANCH   2   4
BRANCH   2   7
HETATM    7  C   UNN     0      33.274  27.227  -4.080  0.00  0.00     0.032 C 
BRANCH   7   8
HETATM    8  C   UNN     0      34.815  27.173  -4.085  0.00  0.00     0.032 C 
BRANCH   8   9
HETATM    9  C   UNN     0      35.372  25.744  -3.923  0.00  0.00     0.272 C 
BRANCH   9  10
HETATM   10  N   UNN     0      36.685  25.656  -3.282  0.00  0.00     0.084 N 
HETATM   11  C   UNN     0      37.343  26.954  -3.320  0.00  0.00     0.309 C 
BRANCH  10  12
HETATM   12  C   UNN     0      36.604  25.134  -1.921  0.00  0.00     0.276 C 
BRANCH  12  13
HETATM   13  C   UNN     0      35.170  24.829  -1.449  0.00  0.00     0.068 C 
BRANCH  13  14
HETATM   14  C   UNN     0      34.618  25.966  -0.611  0.00  0.00    -0.054 A 
HETATM   15  C   UNN     0      35.435  26.792   0.061  0.00  0.00     0.046 A 
HETATM   16  C   UNN     0      34.992  27.827   0.805  0.00  0.00     0.102 A 
HETATM   17  C   UNN     0      33.658  28.055   0.867  0.00  0.00     0.101 A 
HETATM   18  C   UNN     0      32.838  27.225   0.190  0.00  0.00     0.040 A 
HETATM   19  C   UNN     0      33.301  26.199  -0.536  0.00  0.00     0.010 A 
BRANCH  16  20
HETATM   20  O   UNN     0      35.819  28.696   1.481  0.00  0.00    -0.353 OA
HETATM   21  C   UNN     0      36.496  28.247   2.632  0.00  0.00     0.210 C 
ENDBRANCH  16  20
BRANCH  17  22
HETATM   22  O   UNN     0      33.224  29.131   1.609  0.00  0.00    -0.353 OA
HETATM   23  C   UNN     0      31.842  29.367   1.734  0.00  0.00     0.210 C 
ENDBRANCH  17  22
ENDBRANCH  13  14
ENDBRANCH  12  13
ENDBRANCH  10  12
ENDBRANCH   9  10
ENDBRANCH   8   9
ENDBRANCH   7   8
ENDBRANCH   2   7
BRANCH   2  24
HETATM   24  C   UNN     0      31.165  28.563  -4.365  0.00  0.00    -0.032 A 
HETATM   25  C   UNN     0      30.320  29.276  -3.599  0.00  0.00     0.048 A 
HETATM   26  C   UNN     0      28.975  29.197  -3.684  0.00  0.00     0.102 A 
HETATM   27  C   UNN     0      28.432  28.360  -4.600  0.00  0.00     0.101 A 
HETATM   28  C   UNN     0      29.270  27.636  -5.367  0.00  0.00     0.040 A 
HETATM   29  C   UNN     0      30.601  27.738  -5.261  0.00  0.00     0.012 A 
BRANCH  26  30
HETATM   30  O   UNN     0      28.108  29.924  -2.898  0.00  0.00    -0.353 OA
HETATM   31  C   UNN     0      27.937  31.301  -3.143  0.00  0.00     0.210 C 
ENDBRANCH  26  30
BRANCH  27  32
HETATM   32  O   UNN     0      27.059  28.272  -4.665  0.00  0.00    -0.353 OA
HETATM   33  C   UNN     0      26.474  27.264  -5.456  0.00  0.00     0.210 C 
ENDBRANCH  27  32
ENDBRANCH   2  24
TORSDOF 13
ENDMDL
MODEL 2
REMARK VINA RESULT:      -5.4      2.600      8.907
REMARK  13 active torsions:
REMARK  status: ('A' for Active; 'I' for Inactive)
REMARK    1  A    between atoms: O_1  and  C_19 
REMARK    2  A    between atoms: O_2  and  C_23 
REMARK    3  A    between atoms: O_3  and  C_27 
REMARK    4  A    between atoms: O_4  and  C_30 
REMARK    5  A    between atoms: N_5  and  C_12 
REMARK    6  A    between atoms: N_5  and  C_18 
REMARK    7  A    between atoms: C_7  and  C_8 
REMARK    8  A    between atoms: C_7  and  C_9 
REMARK    9  A    between atoms: C_7  and  C_11 
REMARK   10  A    between atoms: C_9  and  C_10 
REMARK   11  A    between atoms: C_10  and  C_12 
REMARK   12  A    between atoms: C_18  and  C_22 
REMARK   13  A    between atoms: C_22  and  C_24 
ROOT
HETATM    1  N   UNN     0      35.706  28.666  -0.774  0.00  0.00    -0.196 NA
HETATM    2  C   UNN     0      35.676  26.489  -2.271  0.00  0.00     0.079 C 
HETATM    3  C   UNN     0      35.698  27.708  -1.426  0.00  0.00     0.074 C 
ENDROOT
BRANCH   2   4
HETATM    4  C   UNN     0      34.534  25.573  -1.747  0.00  0.00     0.004 C 
HETATM    5  C   UNN     0      33.755  24.839  -2.856  0.00  0.00     0.011 C 
HETATM    6  C   UNN     0      33.539  26.344  -0.855  0.00  0.00     0.011 C 
ENDBRANCH   2   4
BRANCH   2   7
HETATM    7  C   UNN     0      35.421  26.975  -3.721  0.00  0.00     0.032 C 
BRANCH   7   8
HETATM    8  C   UNN     0      34.512  28.217  -3.818  0.00  0.00     0.032 C 
BRANCH   8   9
HETATM    9  C   UNN     0      33.522  28.152  -5.000  0.00  0.00     0.272 C 
BRANCH   9  10
HETATM   10  N   UNN     0      32.821  29.403  -5.294  0.00  0.00     0.084 N 
HETATM   11  C   UNN     0      33.504  30.113  -6.367  0.00  0.00     0.309 C 
BRANCH  10  12
HETATM   12  C   UNN     0      31.411  29.189  -5.605  0.00  0.00     0.276 C 
BRANCH  12  13
HETATM   13  C   UNN     0      30.832  27.883  -5.031  0.00  0.00     0.068 C 
BRANCH  13  14
HETATM   14  C   UNN     0      29.318  27.879  -5.103  0.00  0.00    -0.054 A 
HETATM   15  C   UNN     0      28.595  28.871  -4.560  0.00  0.00     0.046 A 
HETATM   16  C   UNN     0      27.247  28.921  -4.614  0.00  0.00     0.102 A 
HETATM   17  C   UNN     0      26.589  27.928  -5.261  0.00  0.00     0.101 A 
HETATM   18  C   UNN     0      27.316  26.933  -5.807  0.00  0.00     0.040 A 
HETATM   19  C   UNN     0      28.653  26.901  -5.734  0.00  0.00     0.010 A 
BRANCH  16  20
HETATM   20  O   UNN     0      26.495  29.943  -4.082  0.00  0.00    -0.353 OA
HETATM   21  C   UNN     0      26.598  31.234  -4.636  0.00  0.00     0.210 C 
ENDBRANCH  16  20
BRANCH  17  22
HETATM   22  O   UNN     0      25.216  28.007  -5.329  0.00  0.00    -0.353 OA
HETATM   23  C   UNN     0      24.442  26.923  -4.874  0.00  0.00     0.210 C 
ENDBRANCH  17  22
ENDBRANCH  13  14
ENDBRANCH  12  13
ENDBRANCH  10  12
ENDBRANCH   9  10
ENDBRANCH   8   9
ENDBRANCH   7   8
ENDBRANCH   2   7
BRANCH   2  24
HETATM   24  C   UNN     0      37.009  25.734  -2.221  0.00  0.00    -0.032 A 
HETATM   25  C   UNN     0      37.632  25.419  -1.071  0.00  0.00     0.048 A 
HETATM   26  C   UNN     0      38.814  24.771  -1.005  0.00  0.00     0.102 A 
HETATM   27  C   UNN     0      39.413  24.399  -2.161  0.00  0.00     0.101 A 
HETATM   28  C   UNN     0      38.802  24.715  -3.318  0.00  0.00     0.040 A 
HETATM   29  C   UNN     0      37.627  25.357  -3.351  0.00  0.00     0.012 A 
BRANCH  26  30
HETATM   30  O   UNN     0      39.454  24.451   0.173  0.00  0.00    -0.353 OA
HETATM   31  C   UNN     0      39.594  25.430   1.176  0.00  0.00     0.210 C 
ENDBRANCH  26  30
BRANCH  27  32
HETATM   32  O   UNN     0      40.628  23.755  -2.083  0.00  0.00    -0.353 OA
HETATM   33  C   UNN     0      41.775  24.391  -2.596  0.00  0.00     0.210 C 
ENDBRANCH  27  32
ENDBRANCH   2  24
TORSDOF 13
ENDMDL
MODEL 3
REMARK VINA RESULT:      -5.4     24.955     29.379
REMARK  13 active torsions:
REMARK  status: ('A' for Active; 'I' for Inactive)
REMARK    1  A    between atoms: O_1  and  C_19 
REMARK    2  A    between atoms: O_2  and  C_23 
REMARK    3  A    between atoms: O_3  and  C_27 
REMARK    4  A    between atoms: O_4  and  C_30 
REMARK    5  A    between atoms: N_5  and  C_12 
REMARK    6  A    between atoms: N_5  and  C_18 
REMARK    7  A    between atoms: C_7  and  C_8 
REMARK    8  A    between atoms: C_7  and  C_9 
REMARK    9  A    between atoms: C_7  and  C_11 
REMARK   10  A    between atoms: C_9  and  C_10 
REMARK   11  A    between atoms: C_10  and  C_12 
REMARK   12  A    between atoms: C_18  and  C_22 
REMARK   13  A    between atoms: C_22  and  C_24 
ROOT
HETATM    1  N   UNN     0      18.000  29.957  23.693  0.00  0.00    -0.196 NA
HETATM    2  C   UNN     0      20.204  30.070  25.144  0.00  0.00     0.079 C 
HETATM    3  C   UNN     0      18.962  30.005  24.336  0.00  0.00     0.074 C 
ENDROOT
BRANCH   2   4
HETATM    4  C   UNN     0      20.762  28.623  25.266  0.00  0.00     0.004 C 
HETATM    5  C   UNN     0      21.512  28.346  26.584  0.00  0.00     0.011 C 
HETATM    6  C   UNN     0      21.672  28.254  24.077  0.00  0.00     0.011 C 
ENDBRANCH   2   4
BRANCH   2   7
HETATM    7  C   UNN     0      21.170  31.009  24.376  0.00  0.00     0.032 C 
BRANCH   7   8
HETATM    8  C   UNN     0      20.469  32.171  23.645  0.00  0.00     0.032 C 
BRANCH   8   9
HETATM    9  C   UNN     0      20.840  32.258  22.150  0.00  0.00     0.272 C 
BRANCH   9  10
HETATM   10  N   UNN     0      19.884  31.635  21.234  0.00  0.00     0.084 N 
HETATM   11  C   UNN     0      19.561  32.555  20.152  0.00  0.00     0.309 C 
BRANCH  10  12
HETATM   12  C   UNN     0      20.360  30.353  20.723  0.00  0.00     0.276 C 
BRANCH  12  13
HETATM   13  C   UNN     0      21.882  30.153  20.844  0.00  0.00     0.068 C 
BRANCH  13  14
HETATM   14  C   UNN     0      22.553  30.234  19.487  0.00  0.00    -0.054 A 
HETATM   15  C   UNN     0      22.845  29.124  18.791  0.00  0.00     0.046 A 
HETATM   16  C   UNN     0      23.426  29.145  17.573  0.00  0.00     0.102 A 
HETATM   17  C   UNN     0      23.716  30.346  17.016  0.00  0.00     0.101 A 
HETATM   18  C   UNN     0      23.421  31.460  17.716  0.00  0.00     0.040 A 
HETATM   19  C   UNN     0      22.852  31.414  18.927  0.00  0.00     0.010 A 
BRANCH  16  20
HETATM   20  O   UNN     0      23.710  28.016  16.838  0.00  0.00    -0.353 OA
HETATM   21  C   UNN     0      23.266  26.763  17.303  0.00  0.00     0.210 C 
ENDBRANCH  16  20
BRANCH  17  22
HETATM   22  O   UNN     0      24.285  30.351  15.762  0.00  0.00    -0.353 OA
HETATM   23  C   UNN     0      23.536  30.829  14.670  0.00  0.00     0.210 C 
ENDBRANCH  17  22
ENDBRANCH  13  14
ENDBRANCH  12  13
ENDBRANCH  10  12
ENDBRANCH   9  10
ENDBRANCH   8   9
ENDBRANCH   7   8
ENDBRANCH   2   7
BRANCH   2  24
HETATM   24  C   UNN     0      19.948  30.645  26.542  0.00  0.00    -0.032 A 
HETATM   25  C   UNN     0      18.845  30.367  27.260  0.00  0.00     0.048 A 
HETATM   26  C   UNN     0      18.592  30.877  28.483  0.00  0.00     0.102 A 
HETATM   27  C   UNN     0      19.503  31.712  29.038  0.00  0.00     0.101 A 
HETATM   28  C   UNN     0      20.608  32.002  28.325  0.00  0.00     0.040 A 
HETATM   29  C   UNN     0      20.833  31.478  27.113  0.00  0.00     0.012 A 
BRANCH  26  30
HETATM   30  O   UNN     0      17.461  30.596  29.218  0.00  0.00    -0.353 OA
HETATM   31  C   UNN     0      16.191  30.827  28.654  0.00  0.00     0.210 C 
ENDBRANCH  26  30
BRANCH  27  32
HETATM   32  O   UNN     0      19.226  32.241  30.279  0.00  0.00    -0.353 OA
HETATM   33  C   UNN     0      19.969  31.801  31.392  0.00  0.00     0.210 C 
ENDBRANCH  27  32
ENDBRANCH   2  24
TORSDOF 13
ENDMDL
MODEL 4
REMARK VINA RESULT:      -5.3      2.266      7.227
REMARK  13 active torsions:
REMARK  status: ('A' for Active; 'I' for Inactive)
REMARK    1  A    between atoms: O_1  and  C_19 
REMARK    2  A    between atoms: O_2  and  C_23 
REMARK    3  A    between atoms: O_3  and  C_27 
REMARK    4  A    between atoms: O_4  and  C_30 
REMARK    5  A    between atoms: N_5  and  C_12 
REMARK    6  A    between atoms: N_5  and  C_18 
REMARK    7  A    between atoms: C_7  and  C_8 
REMARK    8  A    between atoms: C_7  and  C_9 
REMARK    9  A    between atoms: C_7  and  C_11 
REMARK   10  A    between atoms: C_9  and  C_10 
REMARK   11  A    between atoms: C_10  and  C_12 
REMARK   12  A    between atoms: C_18  and  C_22 
REMARK   13  A    between atoms: C_22  and  C_24 
ROOT
HETATM    1  N   UNN     0      32.738  31.707  -0.067  0.00  0.00    -0.196 NA
HETATM    2  C   UNN     0      31.959  30.035  -1.958  0.00  0.00     0.079 C 
HETATM    3  C   UNN     0      32.401  30.968  -0.893  0.00  0.00     0.074 C 
ENDROOT
BRANCH   2   4
HETATM    4  C   UNN     0      30.603  29.418  -1.512  0.00  0.00     0.004 C 
HETATM    5  C   UNN     0      29.365  30.164  -2.047  0.00  0.00     0.011 C 
HETATM    6  C   UNN     0      30.501  29.301   0.023  0.00  0.00     0.011 C 
ENDBRANCH   2   4
BRANCH   2   7
HETATM    7  C   UNN     0      31.822  30.886  -3.246  0.00  0.00     0.032 C 
BRANCH   7   8
HETATM    8  C   UNN     0      33.153  31.475  -3.757  0.00  0.00     0.032 C 
BRANCH   8   9
HETATM    9  C   UNN     0      33.069  31.996  -5.207  0.00  0.00     0.272 C 
BRANCH   9  10
HETATM   10  N   UNN     0      33.616  31.098  -6.224  0.00  0.00     0.084 N 
HETATM   11  C   UNN     0      34.528  30.145  -5.606  0.00  0.00     0.309 C 
BRANCH  10  12
HETATM   12  C   UNN     0      32.572  30.423  -6.989  0.00  0.00     0.276 C 
BRANCH  12  13
HETATM   13  C   UNN     0      32.245  29.004  -6.488  0.00  0.00     0.068 C 
BRANCH  13  14
HETATM   14  C   UNN     0      30.793  28.895  -6.064  0.00  0.00    -0.054 A 
HETATM   15  C   UNN     0      29.925  29.892  -6.301  0.00  0.00     0.046 A 
HETATM   16  C   UNN     0      28.622  29.835  -5.959  0.00  0.00     0.102 A 
HETATM   17  C   UNN     0      28.159  28.712  -5.359  0.00  0.00     0.101 A 
HETATM   18  C   UNN     0      29.031  27.711  -5.122  0.00  0.00     0.040 A 
HETATM   19  C   UNN     0      30.323  27.794  -5.464  0.00  0.00     0.010 A 
BRANCH  16  20
HETATM   20  O   UNN     0      27.716  30.840  -6.216  0.00  0.00    -0.353 OA
HETATM   21  C   UNN     0      27.763  32.022  -5.452  0.00  0.00     0.210 C 
ENDBRANCH  16  20
BRANCH  17  22
HETATM   22  O   UNN     0      26.820  28.660  -5.039  0.00  0.00    -0.353 OA
HETATM   23  C   UNN     0      26.070  27.526  -5.404  0.00  0.00     0.210 C 
ENDBRANCH  17  22
ENDBRANCH  13  14
ENDBRANCH  12  13
ENDBRANCH  10  12
ENDBRANCH   9  10
ENDBRANCH   8   9
ENDBRANCH   7   8
ENDBRANCH   2   7
BRANCH   2  24
HETATM   24  C   UNN     0      32.981  28.918  -2.200  0.00  0.00    -0.032 A 
HETATM   25  C   UNN     0      34.128  28.808  -1.505  0.00  0.00     0.048 A 
HETATM   26  C   UNN     0      35.048  27.843  -1.714  0.00  0.00     0.102 A 
HETATM   27  C   UNN     0      34.808  26.916  -2.672  0.00  0.00     0.101 A 
HETATM   28  C   UNN     0      33.667  27.021  -3.378  0.00  0.00     0.040 A 
HETATM   29  C   UNN     0      32.770  27.989  -3.146  0.00  0.00     0.012 A 
BRANCH  26  30
HETATM   30  O   UNN     0      36.224  27.731  -1.005  0.00  0.00    -0.353 OA
HETATM   31  C   UNN     0      36.184  27.359   0.353  0.00  0.00     0.210 C 
ENDBRANCH  26  30
BRANCH  27  32
HETATM   32  O   UNN     0      35.763  25.948  -2.890  0.00  0.00    -0.353 OA
HETATM   33  C   UNN     0      35.355  24.669  -3.317  0.00  0.00     0.210 C 
ENDBRANCH  27  32
ENDBRANCH   2  24
TORSDOF 13
ENDMDL
MODEL 5
REMARK VINA RESULT:      -5.3      3.017      4.738
REMARK  13 active torsions:
REMARK  status: ('A' for Active; 'I' for Inactive)
REMARK    1  A    between atoms: O_1  and  C_19 
REMARK    2  A    between atoms: O_2  and  C_23 
REMARK    3  A    between atoms: O_3  and  C_27 
REMARK    4  A    between atoms: O_4  and  C_30 
REMARK    5  A    between atoms: N_5  and  C_12 
REMARK    6  A    between atoms: N_5  and  C_18 
REMARK    7  A    between atoms: C_7  and  C_8 
REMARK    8  A    between atoms: C_7  and  C_9 
REMARK    9  A    between atoms: C_7  and  C_11 
REMARK   10  A    between atoms: C_9  and  C_10 
REMARK   11  A    between atoms: C_10  and  C_12 
REMARK   12  A    between atoms: C_18  and  C_22 
REMARK   13  A    between atoms: C_22  and  C_24 
ROOT
HETATM    1  N   UNN     0      32.002  31.185  -3.845  0.00  0.00    -0.196 NA
HETATM    2  C   UNN     0      31.181  29.328  -5.534  0.00  0.00     0.079 C 
HETATM    3  C   UNN     0      31.634  30.373  -4.585  0.00  0.00     0.074 C 
ENDROOT
BRANCH   2   4
HETATM    4  C   UNN     0      31.205  29.945  -6.961  0.00  0.00     0.004 C 
HETATM    5  C   UNN     0      32.619  30.102  -7.556  0.00  0.00     0.011 C 
HETATM    6  C   UNN     0      30.479  31.305  -7.013  0.00  0.00     0.011 C 
ENDBRANCH   2   4
BRANCH   2   7
HETATM    7  C   UNN     0      32.178  28.150  -5.387  0.00  0.00     0.032 C 
BRANCH   7   8
HETATM    8  C   UNN     0      32.596  27.857  -3.932  0.00  0.00     0.032 C 
BRANCH   8   9
HETATM    9  C   UNN     0      33.910  27.056  -3.828  0.00  0.00     0.272 C 
BRANCH   9  10
HETATM   10  N   UNN     0      35.017  27.756  -3.176  0.00  0.00     0.084 N 
HETATM   11  C   UNN     0      34.701  27.986  -1.773  0.00  0.00     0.309 C 
BRANCH  10  12
HETATM   12  C   UNN     0      36.287  27.055  -3.332  0.00  0.00     0.276 C 
BRANCH  12  13
HETATM   13  C   UNN     0      36.523  25.944  -2.291  0.00  0.00     0.068 C 
BRANCH  13  14
HETATM   14  C   UNN     0      37.887  25.309  -2.471  0.00  0.00    -0.054 A 
HETATM   15  C   UNN     0      38.413  24.514  -1.525  0.00  0.00     0.046 A 
HETATM   16  C   UNN     0      39.614  23.913  -1.647  0.00  0.00     0.102 A 
HETATM   17  C   UNN     0      40.322  24.106  -2.786  0.00  0.00     0.101 A 
HETATM   18  C   UNN     0      39.793  24.904  -3.736  0.00  0.00     0.040 A 
HETATM   19  C   UNN     0      38.602  25.497  -3.589  0.00  0.00     0.010 A 
BRANCH  16  20
HETATM   20  O   UNN     0      40.155  23.077  -0.695  0.00  0.00    -0.353 OA
HETATM   21  C   UNN     0      40.521  23.607   0.558  0.00  0.00     0.210 C 
ENDBRANCH  16  20
BRANCH  17  22
HETATM   22  O   UNN     0      41.535  23.465  -2.906  0.00  0.00    -0.353 OA
HETATM   23  C   UNN     0      42.721  24.190  -2.684  0.00  0.00     0.210 C 
ENDBRANCH  17  22
ENDBRANCH  13  14
ENDBRANCH  12  13
ENDBRANCH  10  12
ENDBRANCH   9  10
ENDBRANCH   8   9
ENDBRANCH   7   8
ENDBRANCH   2   7
BRANCH   2  24
HETATM   24  C   UNN     0      29.767  28.833  -5.209  0.00  0.00    -0.032 A 
HETATM   25  C   UNN     0      28.932  29.487  -4.381  0.00  0.00     0.048 A 
HETATM   26  C   UNN     0      27.691  29.061  -4.067  0.00  0.00     0.102 A 
HETATM   27  C   UNN     0      27.243  27.910  -4.624  0.00  0.00     0.101 A 
HETATM   28  C   UNN     0      28.072  27.244  -5.449  0.00  0.00     0.040 A 
HETATM   29  C   UNN     0      29.299  27.694  -5.743  0.00  0.00     0.012 A 
BRANCH  26  30
HETATM   30  O   UNN     0      26.837  29.728  -3.216  0.00  0.00    -0.353 OA
HETATM   31  C   UNN     0      26.295  30.968  -3.608  0.00  0.00     0.210 C 
ENDBRANCH  26  30
BRANCH  27  32
HETATM   32  O   UNN     0      25.982  27.473  -4.282  0.00  0.00    -0.353 OA
HETATM   33  C   UNN     0      25.056  27.187  -5.304  0.00  0.00     0.210 C 
ENDBRANCH  27  32
ENDBRANCH   2  24
TORSDOF 13
ENDMDL
MODEL 6
REMARK VINA RESULT:      -5.2      2.686      4.265
REMARK  13 active torsions:
REMARK  status: ('A' for Active; 'I' for Inactive)
REMARK    1  A    between atoms: O_1  and  C_19 
REMARK    2  A    between atoms: O_2  and  C_23 
REMARK    3  A    between atoms: O_3  and  C_27 
REMARK    4  A    between atoms: O_4  and  C_30 
REMARK    5  A    between atoms: N_5  and  C_12 
REMARK    6  A    between atoms: N_5  and  C_18 
REMARK    7  A    between atoms: C_7  and  C_8 
REMARK    8  A    between atoms: C_7  and  C_9 
REMARK    9  A    between atoms: C_7  and  C_11 
REMARK   10  A    between atoms: C_9  and  C_10 
REMARK   11  A    between atoms: C_10  and  C_12 
REMARK   12  A    between atoms: C_18  and  C_22 
REMARK   13  A    between atoms: C_22  and  C_24 
ROOT
HETATM    1  N   UNN     0      30.435  32.848  -5.705  0.00  0.00    -0.196 NA
HETATM    2  C   UNN     0      31.061  30.289  -5.510  0.00  0.00     0.079 C 
HETATM    3  C   UNN     0      30.703  31.724  -5.623  0.00  0.00     0.074 C 
ENDROOT
BRANCH   2   4
HETATM    4  C   UNN     0      31.912  29.916  -6.756  0.00  0.00     0.004 C 
HETATM    5  C   UNN     0      33.358  30.450  -6.715  0.00  0.00     0.011 C 
HETATM    6  C   UNN     0      31.242  30.370  -8.069  0.00  0.00     0.011 C 
ENDBRANCH   2   4
BRANCH   2   7
HETATM    7  C   UNN     0      31.859  30.148  -4.189  0.00  0.00     0.032 C 
BRANCH   7   8
HETATM    8  C   UNN     0      32.332  28.711  -3.890  0.00  0.00     0.032 C 
BRANCH   8   9
HETATM    9  C   UNN     0      33.825  28.631  -3.507  0.00  0.00     0.272 C 
BRANCH   9  10
HETATM   10  N   UNN     0      34.193  27.490  -2.670  0.00  0.00     0.084 N 
HETATM   11  C   UNN     0      33.307  27.414  -1.516  0.00  0.00     0.309 C 
BRANCH  10  12
HETATM   12  C   UNN     0      34.208  26.235  -3.416  0.00  0.00     0.276 C 
BRANCH  12  13
HETATM   13  C   UNN     0      34.558  25.001  -2.563  0.00  0.00     0.068 C 
BRANCH  13  14
HETATM   14  C   UNN     0      36.020  25.010  -2.163  0.00  0.00    -0.054 A 
HETATM   15  C   UNN     0      36.987  24.775  -3.065  0.00  0.00     0.046 A 
HETATM   16  C   UNN     0      38.301  24.789  -2.761  0.00  0.00     0.102 A 
HETATM   17  C   UNN     0      38.668  25.069  -1.487  0.00  0.00     0.101 A 
HETATM   18  C   UNN     0      37.696  25.306  -0.582  0.00  0.00     0.040 A 
HETATM   19  C   UNN     0      36.396  25.279  -0.906  0.00  0.00     0.010 A 
BRANCH  16  20
HETATM   20  O   UNN     0      39.304  24.572  -3.679  0.00  0.00    -0.353 OA
HETATM   21  C   UNN     0      39.732  25.638  -4.494  0.00  0.00     0.210 C 
ENDBRANCH  16  20
BRANCH  17  22
HETATM   22  O   UNN     0      40.014  25.105  -1.199  0.00  0.00    -0.353 OA
HETATM   23  C   UNN     0      40.480  24.504  -0.014  0.00  0.00     0.210 C 
ENDBRANCH  17  22
ENDBRANCH  13  14
ENDBRANCH  12  13
ENDBRANCH  10  12
ENDBRANCH   9  10
ENDBRANCH   8   9
ENDBRANCH   7   8
ENDBRANCH   2   7
BRANCH   2  24
HETATM   24  C   UNN     0      29.819  29.393  -5.445  0.00  0.00    -0.032 A 
HETATM   25  C   UNN     0      28.585  29.864  -5.186  0.00  0.00     0.048 A 
HETATM   26  C   UNN     0      27.482  29.091  -5.107  0.00  0.00     0.102 A 
HETATM   27  C   UNN     0      27.611  27.758  -5.310  0.00  0.00     0.101 A 
HETATM   28  C   UNN     0      28.842  27.275  -5.564  0.00  0.00     0.040 A 
HETATM   29  C   UNN     0      29.918  28.068  -5.639  0.00  0.00     0.012 A 
BRANCH  26  30
HETATM   30  O   UNN     0      26.219  29.572  -4.838  0.00  0.00    -0.353 OA
HETATM   31  C   UNN     0      26.070  30.723  -4.041  0.00  0.00     0.210 C 
ENDBRANCH  26  30
BRANCH  27  32
HETATM   32  O   UNN     0      26.482  26.975  -5.209  0.00  0.00    -0.353 OA
HETATM   33  C   UNN     0      26.061  26.232  -6.329  0.00  0.00     0.210 C 
ENDBRANCH  27  32
ENDBRANCH   2  24
TORSDOF 13
ENDMDL
MODEL 7
REMARK VINA RESULT:      -5.2      2.831      7.360
REMARK  13 active torsions:
REMARK  status: ('A' for Active; 'I' for Inactive)
REMARK    1  A    between atoms: O_1  and  C_19 
REMARK    2  A    between atoms: O_2  and  C_23 
REMARK    3  A    between atoms: O_3  and  C_27 
REMARK    4  A    between atoms: O_4  and  C_30 
REMARK    5  A    between atoms: N_5  and  C_12 
REMARK    6  A    between atoms: N_5  and  C_18 
REMARK    7  A    between atoms: C_7  and  C_8 
REMARK    8  A    between atoms: C_7  and  C_9 
REMARK    9  A    between atoms: C_7  and  C_11 
REMARK   10  A    between atoms: C_9  and  C_10 
REMARK   11  A    between atoms: C_10  and  C_12 
REMARK   12  A    between atoms: C_18  and  C_22 
REMARK   13  A    between atoms: C_22  and  C_24 
ROOT
HETATM    1  N   UNN     0      36.712  27.812  -1.687  0.00  0.00    -0.196 NA
HETATM    2  C   UNN     0      34.445  27.050  -2.810  0.00  0.00     0.079 C 
HETATM    3  C   UNN     0      35.721  27.479  -2.187  0.00  0.00     0.074 C 
ENDROOT
BRANCH   2   4
HETATM    4  C   UNN     0      34.544  25.522  -3.081  0.00  0.00     0.004 C 
HETATM    5  C   UNN     0      34.573  24.657  -1.805  0.00  0.00     0.011 C 
HETATM    6  C   UNN     0      35.761  25.169  -3.960  0.00  0.00     0.011 C 
ENDBRANCH   2   4
BRANCH   2   7
HETATM    7  C   UNN     0      33.330  27.396  -1.791  0.00  0.00     0.032 C 
BRANCH   7   8
HETATM    8  C   UNN     0      33.005  28.900  -1.699  0.00  0.00     0.032 C 
BRANCH   8   9
HETATM    9  C   UNN     0      31.753  29.199  -0.848  0.00  0.00     0.272 C 
BRANCH   9  10
HETATM   10  N   UNN     0      30.607  29.726  -1.589  0.00  0.00     0.084 N 
HETATM   11  C   UNN     0      30.279  31.062  -1.110  0.00  0.00     0.309 C 
BRANCH  10  12
HETATM   12  C   UNN     0      30.825  29.713  -3.032  0.00  0.00     0.276 C 
BRANCH  12  13
HETATM   13  C   UNN     0      29.623  30.215  -3.853  0.00  0.00     0.068 C 
BRANCH  13  14
HETATM   14  C   UNN     0      28.840  29.056  -4.439  0.00  0.00    -0.054 A 
HETATM   15  C   UNN     0      27.498  29.073  -4.475  0.00  0.00     0.046 A 
HETATM   16  C   UNN     0      26.759  28.075  -5.000  0.00  0.00     0.102 A 
HETATM   17  C   UNN     0      27.400  27.006  -5.533  0.00  0.00     0.101 A 
HETATM   18  C   UNN     0      28.748  26.990  -5.497  0.00  0.00     0.040 A 
HETATM   19  C   UNN     0      29.461  27.990  -4.962  0.00  0.00     0.010 A 
BRANCH  16  20
HETATM   20  O   UNN     0      25.383  28.090  -5.065  0.00  0.00    -0.353 OA
HETATM   21  C   UNN     0      24.638  28.071  -3.870  0.00  0.00     0.210 C 
ENDBRANCH  16  20
BRANCH  17  22
HETATM   22  O   UNN     0      26.632  26.008  -6.089  0.00  0.00    -0.353 OA
HETATM   23  C   UNN     0      26.746  25.738  -7.466  0.00  0.00     0.210 C 
ENDBRANCH  17  22
ENDBRANCH  13  14
ENDBRANCH  12  13
ENDBRANCH  10  12
ENDBRANCH   9  10
ENDBRANCH   8   9
ENDBRANCH   7   8
ENDBRANCH   2   7
BRANCH   2  24
HETATM   24  C   UNN     0      34.173  27.791  -4.124  0.00  0.00    -0.032 A 
HETATM   25  C   UNN     0      35.002  28.723  -4.628  0.00  0.00     0.048 A 
HETATM   26  C   UNN     0      34.772  29.400  -5.773  0.00  0.00     0.102 A 
HETATM   27  C   UNN     0      33.646  29.123  -6.473  0.00  0.00     0.101 A 
HETATM   28  C   UNN     0      32.806  28.197  -5.974  0.00  0.00     0.040 A 
HETATM   29  C   UNN     0      33.062  27.540  -4.836  0.00  0.00     0.012 A 
BRANCH  26  30
HETATM   30  O   UNN     0      35.619  30.357  -6.288  0.00  0.00    -0.353 OA
HETATM   31  C   UNN     0      35.981  31.463  -5.494  0.00  0.00     0.210 C 
ENDBRANCH  26  30
BRANCH  27  32
HETATM   32  O   UNN     0      33.411  29.833  -7.630  0.00  0.00    -0.353 OA
HETATM   33  C   UNN     0      32.154  30.439  -7.818  0.00  0.00     0.210 C 
ENDBRANCH  27  32
ENDBRANCH   2  24
TORSDOF 13
ENDMDL
MODEL 8
REMARK VINA RESULT:      -5.1      2.451      4.346
REMARK  13 active torsions:
REMARK  status: ('A' for Active; 'I' for Inactive)
REMARK    1  A    between atoms: O_1  and  C_19 
REMARK    2  A    between atoms: O_2  and  C_23 
REMARK    3  A    between atoms: O_3  and  C_27 
REMARK    4  A    between atoms: O_4  and  C_30 
REMARK    5  A    between atoms: N_5  and  C_12 
REMARK    6  A    between atoms: N_5  and  C_18 
REMARK    7  A    between atoms: C_7  and  C_8 
REMARK    8  A    between atoms: C_7  and  C_9 
REMARK    9  A    between atoms: C_7  and  C_11 
REMARK   10  A    between atoms: C_9  and  C_10 
REMARK   11  A    between atoms: C_10  and  C_12 
REMARK   12  A    between atoms: C_18  and  C_22 
REMARK   13  A    between atoms: C_22  and  C_24 
ROOT
HETATM    1  N   UNN     0      30.110  33.448  -6.046  0.00  0.00    -0.196 NA
HETATM    2  C   UNN     0      31.242  31.062  -6.003  0.00  0.00     0.079 C 
HETATM    3  C   UNN     0      30.600  32.398  -6.030  0.00  0.00     0.074 C 
ENDROOT
BRANCH   2   4
HETATM    4  C   UNN     0      31.996  30.874  -7.351  0.00  0.00     0.004 C 
HETATM    5  C   UNN     0      33.168  31.853  -7.559  0.00  0.00     0.011 C 
HETATM    6  C   UNN     0      31.043  30.959  -8.561  0.00  0.00     0.011 C 
ENDBRANCH   2   4
BRANCH   2   7
HETATM    7  C   UNN     0      32.205  31.071  -4.788  0.00  0.00     0.032 C 
BRANCH   7   8
HETATM    8  C   UNN     0      31.507  31.309  -3.434  0.00  0.00     0.032 C 
BRANCH   8   9
HETATM    9  C   UNN     0      32.479  31.750  -2.320  0.00  0.00     0.272 C 
BRANCH   9  10
HETATM   10  N   UNN     0      32.205  31.190  -0.997  0.00  0.00     0.084 N 
HETATM   11  C   UNN     0      31.695  32.231  -0.113  0.00  0.00     0.309 C 
BRANCH  10  12
HETATM   12  C   UNN     0      31.301  30.046  -1.054  0.00  0.00     0.276 C 
BRANCH  12  13
HETATM   13  C   UNN     0      31.852  28.776  -0.378  0.00  0.00     0.068 C 
BRANCH  13  14
HETATM   14  C   UNN     0      32.850  28.070  -1.274  0.00  0.00    -0.054 A 
HETATM   15  C   UNN     0      33.921  27.444  -0.761  0.00  0.00     0.046 A 
HETATM   16  C   UNN     0      34.827  26.788  -1.516  0.00  0.00     0.102 A 
HETATM   17  C   UNN     0      34.642  26.745  -2.858  0.00  0.00     0.101 A 
HETATM   18  C   UNN     0      33.565  27.374  -3.372  0.00  0.00     0.040 A 
HETATM   19  C   UNN     0      32.683  28.025  -2.603  0.00  0.00     0.010 A 
BRANCH  16  20
HETATM   20  O   UNN     0      35.917  26.123  -1.002  0.00  0.00    -0.353 OA
HETATM   21  C   UNN     0      37.017  26.865  -0.530  0.00  0.00     0.210 C 
ENDBRANCH  16  20
BRANCH  17  22
HETATM   22  O   UNN     0      35.561  26.050  -3.611  0.00  0.00    -0.353 OA
HETATM   23  C   UNN     0      35.426  24.655  -3.747  0.00  0.00     0.210 C 
ENDBRANCH  17  22
ENDBRANCH  13  14
ENDBRANCH  12  13
ENDBRANCH  10  12
ENDBRANCH   9  10
ENDBRANCH   8   9
ENDBRANCH   7   8
ENDBRANCH   2   7
BRANCH   2  24
HETATM   24  C   UNN     0      30.216  29.937  -5.824  0.00  0.00    -0.032 A 
HETATM   25  C   UNN     0      28.899  30.162  -5.669  0.00  0.00     0.048 A 
HETATM   26  C   UNN     0      27.981  29.188  -5.492  0.00  0.00     0.102 A 
HETATM   27  C   UNN     0      28.400  27.900  -5.478  0.00  0.00     0.101 A 
HETATM   28  C   UNN     0      29.717  27.664  -5.625  0.00  0.00     0.040 A 
HETATM   29  C   UNN     0      30.604  28.652  -5.802  0.00  0.00     0.012 A 
BRANCH  26  30
HETATM   30  O   UNN     0      26.632  29.418  -5.330  0.00  0.00    -0.353 OA
HETATM   31  C   UNN     0      26.201  30.437  -4.459  0.00  0.00     0.210 C 
ENDBRANCH  26  30
BRANCH  27  32
HETATM   32  O   UNN     0      27.458  26.915  -5.278  0.00  0.00    -0.353 OA
HETATM   33  C   UNN     0      26.999  26.172  -6.383  0.00  0.00     0.210 C 
ENDBRANCH  27  32
ENDBRANCH   2  24
TORSDOF 13
ENDMDL
MODEL 9
REMARK VINA RESULT:      -5.0      1.271      2.135
REMARK  13 active torsions:
REMARK  status: ('A' for Active; 'I' for Inactive)
REMARK    1  A    between atoms: O_1  and  C_19 
REMARK    2  A    between atoms: O_2  and  C_23 
REMARK    3  A    between atoms: O_3  and  C_27 
REMARK    4  A    between atoms: O_4  and  C_30 
REMARK    5  A    between atoms: N_5  and  C_12 
REMARK    6  A    between atoms: N_5  and  C_18 
REMARK    7  A    between atoms: C_7  and  C_8 
REMARK    8  A    between atoms: C_7  and  C_9 
REMARK    9  A    between atoms: C_7  and  C_11 
REMARK   10  A    between atoms: C_9  and  C_10 
REMARK   11  A    between atoms: C_10  and  C_12 
REMARK   12  A    between atoms: C_18  and  C_22 
REMARK   13  A    between atoms: C_22  and  C_24 
ROOT
HETATM    1  N   UNN     0      33.636  30.774  -2.934  0.00  0.00    -0.196 NA
HETATM    2  C   UNN     0      32.799  29.538  -5.113  0.00  0.00     0.079 C 
HETATM    3  C   UNN     0      33.261  30.234  -3.888  0.00  0.00     0.074 C 
ENDROOT
BRANCH   2   4
HETATM    4  C   UNN     0      32.921  30.538  -6.298  0.00  0.00     0.004 C 
HETATM    5  C   UNN     0      34.345  31.087  -6.516  0.00  0.00     0.011 C 
HETATM    6  C   UNN     0      31.938  31.718  -6.160  0.00  0.00     0.011 C 
ENDBRANCH   2   4
BRANCH   2   7
HETATM    7  C   UNN     0      33.725  28.307  -5.285  0.00  0.00     0.032 C 
BRANCH   7   8
HETATM    8  C   UNN     0      33.754  27.365  -4.065  0.00  0.00     0.032 C 
BRANCH   8   9
HETATM    9  C   UNN     0      35.127  26.696  -3.848  0.00  0.00     0.272 C 
BRANCH   9  10
HETATM   10  N   UNN     0      35.078  25.332  -3.320  0.00  0.00     0.084 N 
HETATM   11  C   UNN     0      36.392  24.945  -2.824  0.00  0.00     0.309 C 
BRANCH  10  12
HETATM   12  C   UNN     0      34.050  25.168  -2.298  0.00  0.00     0.276 C 
BRANCH  12  13
HETATM   13  C   UNN     0      34.542  25.435  -0.863  0.00  0.00     0.068 C 
BRANCH  13  14
HETATM   14  C   UNN     0      34.253  26.863  -0.444  0.00  0.00    -0.054 A 
HETATM   15  C   UNN     0      33.013  27.373  -0.525  0.00  0.00     0.046 A 
HETATM   16  C   UNN     0      32.704  28.631  -0.149  0.00  0.00     0.102 A 
HETATM   17  C   UNN     0      33.689  29.417   0.350  0.00  0.00     0.101 A 
HETATM   18  C   UNN     0      34.933  28.905   0.432  0.00  0.00     0.040 A 
HETATM   19  C   UNN     0      35.218  27.655   0.044  0.00  0.00     0.010 A 
BRANCH  16  20
HETATM   20  O   UNN     0      31.434  29.159  -0.205  0.00  0.00    -0.353 OA
HETATM   21  C   UNN     0      30.494  28.796   0.780  0.00  0.00     0.210 C 
ENDBRANCH  16  20
BRANCH  17  22
HETATM   22  O   UNN     0      33.352  30.690   0.753  0.00  0.00    -0.353 OA
HETATM   23  C   UNN     0      34.189  31.369   1.659  0.00  0.00     0.210 C 
ENDBRANCH  17  22
ENDBRANCH  13  14
ENDBRANCH  12  13
ENDBRANCH  10  12
ENDBRANCH   9  10
ENDBRANCH   8   9
ENDBRANCH   7   8
ENDBRANCH   2   7
BRANCH   2  24
HETATM   24  C   UNN     0      31.347  29.061  -4.987  0.00  0.00    -0.032 A 
HETATM   25  C   UNN     0      30.530  29.451  -3.992  0.00  0.00     0.048 A 
HETATM   26  C   UNN     0      29.256  29.030  -3.852  0.00  0.00     0.102 A 
HETATM   27  C   UNN     0      28.754  28.169  -4.770  0.00  0.00     0.101 A 
HETATM   28  C   UNN     0      29.566  27.767  -5.766  0.00  0.00     0.040 A 
HETATM   29  C   UNN     0      30.826  28.205  -5.880  0.00  0.00     0.012 A 
BRANCH  26  30
HETATM   30  O   UNN     0      28.419  29.426  -2.832  0.00  0.00    -0.353 OA
HETATM   31  C   UNN     0      27.993  30.767  -2.764  0.00  0.00     0.210 C 
ENDBRANCH  26  30
BRANCH  27  32
HETATM   32  O   UNN     0      27.459  27.730  -4.607  0.00  0.00    -0.353 OA
HETATM   33  C   UNN     0      26.767  27.210  -5.719  0.00  0.00     0.210 C 
ENDBRANCH  27  32
ENDBRANCH   2  24
TORSDOF 13
ENDMDL
