MODEL 1
REMARK VINA RESULT:      -6.7      0.000      0.000
REMARK  12 active torsions:
REMARK  status: ('A' for Active; 'I' for Inactive)
REMARK    1  A    between atoms: P_1  and  O_5 
REMARK    2  A    between atoms: P_1  and  O_6 
REMARK    3  A    between atoms: P_1  and  O_7 
REMARK    4  A    between atoms: O_5  and  C_27 
REMARK    5  A    between atoms: O_9  and  C_37 
REMARK    6  A    between atoms: O_10  and  C_38 
REMARK    7  A    between atoms: O_11  and  C_39 
REMARK    8  A    between atoms: N_12  and  C_27 
REMARK    9  A    between atoms: N_15  and  C_29 
REMARK   10  A    between atoms: N_15  and  C_31 
REMARK   11  A    between atoms: N_18  and  C_33 
REMARK   12  A    between atoms: N_18  and  C_34 
ROOT
HETATM    1  N   UNN     0      16.473  46.773  20.770  0.00  0.00    -0.326 N 
HETATM    2  H   UNN     0      15.692  46.322  21.314  0.00  0.00     0.169 HD
ENDROOT
BRANCH   1   3
HETATM    3  C   UNN     0      17.488  46.024  20.602  0.00  0.00     0.108 A 
HETATM    4  N   UNN     0      18.520  45.994  21.338  0.00  0.00    -0.326 N 
HETATM    5  C   UNN     0      19.539  45.278  21.082  0.00  0.00     0.147 A 
HETATM    6  HN  UNN     0      18.534  46.573  22.178  1.00  0.00     0.169 HD
HETATM    7  N   UNN     0      20.647  45.351  21.864  0.00  0.00    -0.276 N 
HETATM    8  C   UNN     0      19.567  44.451  20.017  0.00  0.00     0.115 A 
HETATM    9  C   UNN     0      21.711  44.498  21.707  0.00  0.00     0.262 C 
HETATM   10  O   UNN     0      22.774  44.657  22.257  0.00  0.00    -0.269 OA
HETATM   11  C   UNN     0      21.430  43.288  20.815  0.00  0.00     0.141 C 
HETATM   12  O   UNN     0      20.619  43.627  19.729  0.00  0.00    -0.327 OA
HETATM   13  C   UNN     0      22.728  42.701  20.248  0.00  0.00     0.057 C 
HETATM   14  C   UNN     0      20.717  42.231  21.669  0.00  0.00     0.057 C 
HETATM   15  C   UNN     0      18.474  44.432  19.237  0.00  0.00     0.044 A 
HETATM   16  C   UNN     0      17.442  45.239  19.513  0.00  0.00     0.051 A 
BRANCH   7  17
HETATM   17  C   UNN     0      20.774  46.430  22.857  0.00  0.00     0.316 C 
BRANCH  17  18
HETATM   18  O   UNN     0      21.003  47.685  22.240  0.00  0.00    -0.277 OA
BRANCH  18  19
HETATM   19  P   UNN     0      22.492  48.274  22.245  0.00  0.00     0.392 P 
HETATM   20  O   UNN     0      23.067  48.528  20.900  0.00  0.00    -0.632 OA
BRANCH  19  21
HETATM   21  O   UNN     0      23.607  47.489  23.108  0.00  0.00    -0.307 OA
HETATM   22  H   UNN     0      23.387  47.546  24.020  0.00  0.00     0.222 HD
ENDBRANCH  19  21
BRANCH  19  23
HETATM   23  O   UNN     0      22.611  49.715  22.984  0.00  0.00    -0.307 OA
HETATM   24  H   UNN     0      21.760  49.946  23.313  0.00  0.00     0.222 HD
ENDBRANCH  19  23
ENDBRANCH  18  19
ENDBRANCH  17  18
ENDBRANCH   7  17
ENDBRANCH   1   3
BRANCH   1  25
HETATM   25  C   UNN     0      16.194  47.952  20.384  0.00  0.00     0.163 A 
HETATM   26  N   UNN     0      16.890  49.001  20.534  0.00  0.00    -0.173 N 
HETATM   27  C   UNN     0      16.553  50.131  20.057  0.00  0.00     0.684 A 
HETATM   28  HN  UNN     0      17.759  48.936  21.063  1.00  0.00     0.186 HD
HETATM   29  N   UNN     0      15.495  50.248  19.362  0.00  0.00    -0.199 N 
HETATM   30  C   UNN     0      14.729  49.254  19.214  0.00  0.00     0.152 A 
HETATM   31  HN  UNN     0      15.265  51.140  18.926  1.00  0.00     0.183 HD
HETATM   32  C   UNN     0      15.023  48.052  19.725  0.00  0.00     0.176 A 
HETATM   33  F   UNN     0      14.205  47.023  19.559  0.00  0.00    -0.201 F 
BRANCH  27  34
HETATM   34  N   UNN     0      17.217  51.210  20.198  0.00  0.00    -0.191 N 
HETATM   35  H   UNN     0      16.748  52.029  19.733  0.00  0.00     0.184 HD
BRANCH  34  36
HETATM   36  C   UNN     0      18.310  51.537  20.764  0.00  0.00     0.054 A 
HETATM   37  C   UNN     0      18.224  52.107  21.977  0.00  0.00     0.069 A 
HETATM   38  C   UNN     0      19.306  52.511  22.671  0.00  0.00     0.106 A 
HETATM   39  C   UNN     0      20.524  52.340  22.107  0.00  0.00     0.135 A 
HETATM   40  C   UNN     0      20.662  51.694  20.927  0.00  0.00     0.106 A 
HETATM   41  C   UNN     0      19.542  51.313  20.284  0.00  0.00     0.069 A 
BRANCH  38  42
HETATM   42  O   UNN     0      19.247  53.132  23.899  0.00  0.00    -0.353 OA
HETATM   43  C   UNN     0      18.681  54.419  23.994  0.00  0.00     0.210 C 
ENDBRANCH  38  42
BRANCH  39  44
HETATM   44  O   UNN     0      21.648  52.709  22.810  0.00  0.00    -0.351 OA
HETATM   45  C   UNN     0      22.119  53.997  22.478  0.00  0.00     0.210 C 
ENDBRANCH  39  44
BRANCH  40  46
HETATM   46  O   UNN     0      21.934  51.428  20.467  0.00  0.00    -0.353 OA
HETATM   47  C   UNN     0      22.346  51.978  19.235  0.00  0.00     0.210 C 
ENDBRANCH  40  46
ENDBRANCH  34  36
ENDBRANCH  27  34
ENDBRANCH   1  25
TORSDOF 12
ENDMDL
MODEL 2
REMARK VINA RESULT:      -6.6     56.670     58.837
REMARK  12 active torsions:
REMARK  status: ('A' for Active; 'I' for Inactive)
REMARK    1  A    between atoms: P_1  and  O_5 
REMARK    2  A    between atoms: P_1  and  O_6 
REMARK    3  A    between atoms: P_1  and  O_7 
REMARK    4  A    between atoms: O_5  and  C_27 
REMARK    5  A    between atoms: O_9  and  C_37 
REMARK    6  A    between atoms: O_10  and  C_38 
REMARK    7  A    between atoms: O_11  and  C_39 
REMARK    8  A    between atoms: N_12  and  C_27 
REMARK    9  A    between atoms: N_15  and  C_29 
REMARK   10  A    between atoms: N_15  and  C_31 
REMARK   11  A    between atoms: N_18  and  C_33 
REMARK   12  A    between atoms: N_18  and  C_34 
ROOT
HETATM    1  N   UNN     0      40.743   9.058 -15.192  0.00  0.00    -0.326 N 
HETATM    2  H   UNN     0      41.399   8.329 -14.810  0.00  0.00     0.169 HD
ENDROOT
BRANCH   1   3
HETATM    3  C   UNN     0      41.326  10.035 -15.763  0.00  0.00     0.108 A 
HETATM    4  N   UNN     0      41.147  10.411 -16.961  0.00  0.00    -0.326 N 
HETATM    5  C   UNN     0      41.812  11.347 -17.504  0.00  0.00     0.147 A 
HETATM    6  HN  UNN     0      40.433   9.938 -17.516  1.00  0.00     0.169 HD
HETATM    7  N   UNN     0      41.631  11.650 -18.816  0.00  0.00    -0.276 N 
HETATM    8  C   UNN     0      42.735  12.048 -16.813  0.00  0.00     0.115 A 
HETATM    9  C   UNN     0      42.224  12.740 -19.404  0.00  0.00     0.262 C 
HETATM   10  O   UNN     0      42.231  12.926 -20.597  0.00  0.00    -0.269 OA
HETATM   11  C   UNN     0      42.834  13.740 -18.422  0.00  0.00     0.141 C 
HETATM   12  O   UNN     0      43.439  13.094 -17.340  0.00  0.00    -0.327 OA
HETATM   13  C   UNN     0      43.909  14.600 -19.097  0.00  0.00     0.057 C 
HETATM   14  C   UNN     0      41.703  14.641 -17.906  0.00  0.00     0.057 C 
HETATM   15  C   UNN     0      42.923  11.699 -15.530  0.00  0.00     0.044 A 
HETATM   16  C   UNN     0      42.238  10.672 -15.010  0.00  0.00     0.051 A 
BRANCH   7  17
HETATM   17  C   UNN     0      40.855  10.744 -19.677  0.00  0.00     0.316 C 
BRANCH  17  18
HETATM   18  O   UNN     0      39.520  11.189 -19.838  0.00  0.00    -0.277 OA
BRANCH  18  19
HETATM   19  P   UNN     0      38.335  10.234 -19.340  0.00  0.00     0.392 P 
HETATM   20  O   UNN     0      37.416   9.770 -20.410  0.00  0.00    -0.632 OA
BRANCH  19  21
HETATM   21  O   UNN     0      37.425  10.746 -18.108  0.00  0.00    -0.307 OA
HETATM   22  H   UNN     0      37.537  10.164 -17.379  0.00  0.00     0.222 HD
ENDBRANCH  19  21
BRANCH  19  23
HETATM   23  O   UNN     0      38.861   8.852 -18.669  0.00  0.00    -0.307 OA
HETATM   24  H   UNN     0      39.025   8.236 -19.360  0.00  0.00     0.222 HD
ENDBRANCH  19  23
ENDBRANCH  18  19
ENDBRANCH  17  18
ENDBRANCH   7  17
ENDBRANCH   1   3
BRANCH   1  25
HETATM   25  C   UNN     0      39.518   8.765 -15.017  0.00  0.00     0.163 A 
HETATM   26  N   UNN     0      38.586   8.787 -15.877  0.00  0.00    -0.173 N 
HETATM   27  C   UNN     0      37.397   8.416 -15.622  0.00  0.00     0.684 A 
HETATM   28  HN  UNN     0      38.801   9.119 -16.818  1.00  0.00     0.186 HD
HETATM   29  N   UNN     0      37.096   7.963 -14.472  0.00  0.00    -0.199 N 
HETATM   30  C   UNN     0      37.963   7.959 -13.553  0.00  0.00     0.152 A 
HETATM   31  HN  UNN     0      36.159   7.604 -14.293  1.00  0.00     0.183 HD
HETATM   32  C   UNN     0      39.219   8.371 -13.765  0.00  0.00     0.176 A 
HETATM   33  F   UNN     0      40.114   8.359 -12.786  0.00  0.00    -0.201 F 
BRANCH  27  34
HETATM   34  N   UNN     0      36.431   8.436 -16.454  0.00  0.00    -0.191 N 
HETATM   35  H   UNN     0      36.013   9.397 -16.553  0.00  0.00     0.184 HD
BRANCH  34  36
HETATM   36  C   UNN     0      35.849   7.577 -17.192  0.00  0.00     0.054 A 
HETATM   37  C   UNN     0      36.531   6.458 -17.483  0.00  0.00     0.069 A 
HETATM   38  C   UNN     0      36.030   5.482 -18.265  0.00  0.00     0.106 A 
HETATM   39  C   UNN     0      34.792   5.654 -18.783  0.00  0.00     0.135 A 
HETATM   40  C   UNN     0      34.038   6.725 -18.447  0.00  0.00     0.106 A 
HETATM   41  C   UNN     0      34.594   7.664 -17.659  0.00  0.00     0.069 A 
BRANCH  38  42
HETATM   42  O   UNN     0      36.720   4.342 -18.612  0.00  0.00    -0.353 OA
HETATM   43  C   UNN     0      36.925   3.339 -17.644  0.00  0.00     0.210 C 
ENDBRANCH  38  42
BRANCH  39  44
HETATM   44  O   UNN     0      34.242   4.657 -19.555  0.00  0.00    -0.351 OA
HETATM   45  C   UNN     0      34.421   4.856 -20.941  0.00  0.00     0.210 C 
ENDBRANCH  39  44
BRANCH  40  46
HETATM   46  O   UNN     0      32.736   6.780 -18.896  0.00  0.00    -0.353 OA
HETATM   47  C   UNN     0      31.715   6.202 -18.112  0.00  0.00     0.210 C 
ENDBRANCH  40  46
ENDBRANCH  34  36
ENDBRANCH  27  34
ENDBRANCH   1  25
TORSDOF 12
ENDMDL
MODEL 3
REMARK VINA RESULT:      -6.4     32.664     36.467
REMARK  12 active torsions:
REMARK  status: ('A' for Active; 'I' for Inactive)
REMARK    1  A    between atoms: P_1  and  O_5 
REMARK    2  A    between atoms: P_1  and  O_6 
REMARK    3  A    between atoms: P_1  and  O_7 
REMARK    4  A    between atoms: O_5  and  C_27 
REMARK    5  A    between atoms: O_9  and  C_37 
REMARK    6  A    between atoms: O_10  and  C_38 
REMARK    7  A    between atoms: O_11  and  C_39 
REMARK    8  A    between atoms: N_12  and  C_27 
REMARK    9  A    between atoms: N_15  and  C_29 
REMARK   10  A    between atoms: N_15  and  C_31 
REMARK   11  A    between atoms: N_18  and  C_33 
REMARK   12  A    between atoms: N_18  and  C_34 
ROOT
HETATM    1  N   UNN     0      29.341  27.856  -4.676  0.00  0.00    -0.326 N 
HETATM    2  H   UNN     0      29.452  27.484  -3.697  0.00  0.00     0.169 HD
ENDROOT
BRANCH   1   3
HETATM    3  C   UNN     0      30.316  28.571  -5.073  0.00  0.00     0.108 A 
HETATM    4  N   UNN     0      30.367  29.838  -5.050  0.00  0.00    -0.326 N 
HETATM    5  C   UNN     0      31.337  30.506  -5.528  0.00  0.00     0.147 A 
HETATM    6  HN  UNN     0      29.591  30.347  -4.625  1.00  0.00     0.169 HD
HETATM    7  N   UNN     0      31.297  31.863  -5.547  0.00  0.00    -0.276 N 
HETATM    8  C   UNN     0      32.417  29.895  -6.058  0.00  0.00     0.115 A 
HETATM    9  C   UNN     0      32.377  32.622  -5.925  0.00  0.00     0.262 C 
HETATM   10  O   UNN     0      32.312  33.811  -6.128  0.00  0.00    -0.269 OA
HETATM   11  C   UNN     0      33.694  31.852  -6.018  0.00  0.00     0.141 C 
HETATM   12  O   UNN     0      33.505  30.570  -6.539  0.00  0.00    -0.327 OA
HETATM   13  C   UNN     0      34.696  32.570  -6.929  0.00  0.00     0.057 C 
HETATM   14  C   UNN     0      34.274  31.742  -4.601  0.00  0.00     0.057 C 
HETATM   15  C   UNN     0      32.411  28.553  -6.064  0.00  0.00     0.044 A 
HETATM   16  C   UNN     0      31.347  27.888  -5.597  0.00  0.00     0.051 A 
BRANCH   7  17
HETATM   17  C   UNN     0      30.038  32.563  -5.248  0.00  0.00     0.316 C 
BRANCH  17  18
HETATM   18  O   UNN     0      28.948  32.011  -5.965  0.00  0.00    -0.277 OA
BRANCH  18  19
HETATM   19  P   UNN     0      27.482  32.590  -5.686  0.00  0.00     0.392 P 
HETATM   20  O   UNN     0      26.985  32.391  -4.301  0.00  0.00    -0.632 OA
BRANCH  19  21
HETATM   21  O   UNN     0      26.297  32.153  -6.693  0.00  0.00    -0.307 OA
HETATM   22  H   UNN     0      26.407  31.249  -6.924  0.00  0.00     0.222 HD
ENDBRANCH  19  21
BRANCH  19  23
HETATM   23  O   UNN     0      27.373  34.197  -5.898  0.00  0.00    -0.307 OA
HETATM   24  H   UNN     0      26.969  34.565  -5.133  0.00  0.00     0.222 HD
ENDBRANCH  19  23
ENDBRANCH  18  19
ENDBRANCH  17  18
ENDBRANCH   7  17
ENDBRANCH   1   3
BRANCH   1  25
HETATM   25  C   UNN     0      28.267  27.469  -5.236  0.00  0.00     0.163 A 
HETATM   26  N   UNN     0      28.123  26.512  -6.056  0.00  0.00    -0.173 N 
HETATM   27  C   UNN     0      26.992  26.159  -6.519  0.00  0.00     0.684 A 
HETATM   28  HN  UNN     0      28.953  26.002  -6.358  1.00  0.00     0.186 HD
HETATM   29  N   UNN     0      25.929  26.746  -6.141  0.00  0.00    -0.199 N 
HETATM   30  C   UNN     0      26.004  27.740  -5.365  0.00  0.00     0.152 A 
HETATM   31  HN  UNN     0      25.020  26.416  -6.464  1.00  0.00     0.183 HD
HETATM   32  C   UNN     0      27.174  28.169  -4.876  0.00  0.00     0.176 A 
HETATM   33  F   UNN     0      27.230  29.215  -4.063  0.00  0.00    -0.201 F 
BRANCH  27  34
HETATM   34  N   UNN     0      26.808  25.214  -7.354  0.00  0.00    -0.191 N 
HETATM   35  H   UNN     0      27.715  24.799  -7.690  0.00  0.00     0.184 HD
BRANCH  34  36
HETATM   36  C   UNN     0      25.795  24.650  -7.880  0.00  0.00     0.054 A 
HETATM   37  C   UNN     0      25.781  24.542  -9.219  0.00  0.00     0.069 A 
HETATM   38  C   UNN     0      24.760  23.979  -9.894  0.00  0.00     0.106 A 
HETATM   39  C   UNN     0      23.704  23.519  -9.183  0.00  0.00     0.135 A 
HETATM   40  C   UNN     0      23.715  23.531  -7.831  0.00  0.00     0.106 A 
HETATM   41  C   UNN     0      24.766  24.104  -7.215  0.00  0.00     0.069 A 
BRANCH  38  42
HETATM   42  O   UNN     0      24.700  23.888 -11.267  0.00  0.00    -0.353 OA
HETATM   43  C   UNN     0      25.834  24.228 -12.031  0.00  0.00     0.210 C 
ENDBRANCH  38  42
BRANCH  39  44
HETATM   44  O   UNN     0      22.665  22.907  -9.845  0.00  0.00    -0.351 OA
HETATM   45  C   UNN     0      22.848  21.519 -10.017  0.00  0.00     0.210 C 
ENDBRANCH  39  44
BRANCH  40  46
HETATM   46  O   UNN     0      22.674  22.926  -7.160  0.00  0.00    -0.353 OA
HETATM   47  C   UNN     0      22.957  21.885  -6.250  0.00  0.00     0.210 C 
ENDBRANCH  40  46
ENDBRANCH  34  36
ENDBRANCH  27  34
ENDBRANCH   1  25
TORSDOF 12
ENDMDL
MODEL 4
REMARK VINA RESULT:      -6.3     34.083     37.586
REMARK  12 active torsions:
REMARK  status: ('A' for Active; 'I' for Inactive)
REMARK    1  A    between atoms: P_1  and  O_5 
REMARK    2  A    between atoms: P_1  and  O_6 
REMARK    3  A    between atoms: P_1  and  O_7 
REMARK    4  A    between atoms: O_5  and  C_27 
REMARK    5  A    between atoms: O_9  and  C_37 
REMARK    6  A    between atoms: O_10  and  C_38 
REMARK    7  A    between atoms: O_11  and  C_39 
REMARK    8  A    between atoms: N_12  and  C_27 
REMARK    9  A    between atoms: N_15  and  C_29 
REMARK   10  A    between atoms: N_15  and  C_31 
REMARK   11  A    between atoms: N_18  and  C_33 
REMARK   12  A    between atoms: N_18  and  C_34 
ROOT
HETATM    1  N   UNN     0      33.849  26.424  -3.276  0.00  0.00    -0.326 N 
HETATM    2  H   UNN     0      32.983  25.954  -2.903  0.00  0.00     0.169 HD
ENDROOT
BRANCH   1   3
HETATM    3  C   UNN     0      33.616  27.370  -4.094  0.00  0.00     0.108 A 
HETATM    4  N   UNN     0      32.484  27.673  -4.578  0.00  0.00    -0.326 N 
HETATM    5  C   UNN     0      32.319  28.583  -5.450  0.00  0.00     0.147 A 
HETATM    6  HN  UNN     0      31.664  27.160  -4.252  1.00  0.00     0.169 HD
HETATM    7  N   UNN     0      31.093  28.805  -5.992  0.00  0.00    -0.276 N 
HETATM    8  C   UNN     0      33.351  29.333  -5.887  0.00  0.00     0.115 A 
HETATM    9  C   UNN     0      30.844  29.865  -6.828  0.00  0.00     0.262 C 
HETATM   10  O   UNN     0      29.825  29.979  -7.465  0.00  0.00    -0.269 OA
HETATM   11  C   UNN     0      31.943  30.928  -6.853  0.00  0.00     0.141 C 
HETATM   12  O   UNN     0      33.215  30.354  -6.786  0.00  0.00    -0.327 OA
HETATM   13  C   UNN     0      31.885  31.758  -8.141  0.00  0.00     0.057 C 
HETATM   14  C   UNN     0      31.735  31.845  -5.640  0.00  0.00     0.057 C 
HETATM   15  C   UNN     0      34.559  29.063  -5.366  0.00  0.00     0.044 A 
HETATM   16  C   UNN     0      34.698  28.062  -4.488  0.00  0.00     0.051 A 
BRANCH   7  17
HETATM   17  C   UNN     0      30.006  27.840  -5.764  0.00  0.00     0.316 C 
BRANCH  17  18
HETATM   18  O   UNN     0      29.194  28.216  -4.665  0.00  0.00    -0.277 OA
BRANCH  18  19
HETATM   19  P   UNN     0      27.648  28.530  -4.933  0.00  0.00     0.392 P 
HETATM   20  O   UNN     0      27.126  29.736  -4.242  0.00  0.00    -0.632 OA
BRANCH  19  21
HETATM   21  O   UNN     0      26.586  27.337  -4.694  0.00  0.00    -0.307 OA
HETATM   22  H   UNN     0      26.022  27.566  -3.977  0.00  0.00     0.222 HD
ENDBRANCH  19  21
BRANCH  19  23
HETATM   23  O   UNN     0      27.311  28.817  -6.496  0.00  0.00    -0.307 OA
HETATM   24  H   UNN     0      26.385  28.708  -6.620  0.00  0.00     0.222 HD
ENDBRANCH  19  23
ENDBRANCH  18  19
ENDBRANCH  17  18
ENDBRANCH   7  17
ENDBRANCH   1   3
BRANCH   1  25
HETATM   25  C   UNN     0      34.922  25.947  -2.786  0.00  0.00     0.163 A 
HETATM   26  N   UNN     0      35.914  25.469  -3.415  0.00  0.00    -0.173 N 
HETATM   27  C   UNN     0      36.974  25.070  -2.838  0.00  0.00     0.684 A 
HETATM   28  HN  UNN     0      35.859  25.403  -4.431  1.00  0.00     0.186 HD
HETATM   29  N   UNN     0      37.097  25.168  -1.575  0.00  0.00    -0.199 N 
HETATM   30  C   UNN     0      36.128  25.588  -0.882  0.00  0.00     0.152 A 
HETATM   31  HN  UNN     0      37.974  24.909  -1.125  1.00  0.00     0.183 HD
HETATM   32  C   UNN     0      34.980  25.990  -1.442  0.00  0.00     0.176 A 
HETATM   33  F   UNN     0      33.975  26.427  -0.696  0.00  0.00    -0.201 F 
BRANCH  27  34
HETATM   34  N   UNN     0      37.986  24.571  -3.432  0.00  0.00    -0.191 N 
HETATM   35  H   UNN     0      37.710  23.870  -4.166  0.00  0.00     0.184 HD
BRANCH  34  36
HETATM   36  C   UNN     0      39.249  24.716  -3.353  0.00  0.00     0.054 A 
HETATM   37  C   UNN     0      39.790  25.745  -4.023  0.00  0.00     0.069 A 
HETATM   38  C   UNN     0      41.114  25.996  -4.030  0.00  0.00     0.106 A 
HETATM   39  C   UNN     0      41.923  25.159  -3.338  0.00  0.00     0.135 A 
HETATM   40  C   UNN     0      41.412  24.162  -2.581  0.00  0.00     0.106 A 
HETATM   41  C   UNN     0      40.081  23.966  -2.615  0.00  0.00     0.069 A 
BRANCH  38  42
HETATM   42  O   UNN     0      41.702  27.020  -4.737  0.00  0.00    -0.353 OA
HETATM   43  C   UNN     0      40.993  27.624  -5.795  0.00  0.00     0.210 C 
ENDBRANCH  38  42
BRANCH  39  44
HETATM   44  O   UNN     0      43.275  25.413  -3.298  0.00  0.00    -0.351 OA
HETATM   45  C   UNN     0      44.020  24.626  -4.201  0.00  0.00     0.210 C 
ENDBRANCH  39  44
BRANCH  40  46
HETATM   46  O   UNN     0      42.272  23.429  -1.792  0.00  0.00    -0.353 OA
HETATM   47  C   UNN     0      42.392  23.752  -0.424  0.00  0.00     0.210 C 
ENDBRANCH  40  46
ENDBRANCH  34  36
ENDBRANCH  27  34
ENDBRANCH   1  25
TORSDOF 12
ENDMDL
MODEL 5
REMARK VINA RESULT:      -6.3     33.189     35.764
REMARK  12 active torsions:
REMARK  status: ('A' for Active; 'I' for Inactive)
REMARK    1  A    between atoms: P_1  and  O_5 
REMARK    2  A    between atoms: P_1  and  O_6 
REMARK    3  A    between atoms: P_1  and  O_7 
REMARK    4  A    between atoms: O_5  and  C_27 
REMARK    5  A    between atoms: O_9  and  C_37 
REMARK    6  A    between atoms: O_10  and  C_38 
REMARK    7  A    between atoms: O_11  and  C_39 
REMARK    8  A    between atoms: N_12  and  C_27 
REMARK    9  A    between atoms: N_15  and  C_29 
REMARK   10  A    between atoms: N_15  and  C_31 
REMARK   11  A    between atoms: N_18  and  C_33 
REMARK   12  A    between atoms: N_18  and  C_34 
ROOT
HETATM    1  N   UNN     0      24.982  26.909  -6.336  0.00  0.00    -0.326 N 
HETATM    2  H   UNN     0      24.506  27.686  -6.863  0.00  0.00     0.169 HD
ENDROOT
BRANCH   1   3
HETATM    3  C   UNN     0      24.458  25.763  -6.515  0.00  0.00     0.108 A 
HETATM    4  N   UNN     0      23.410  25.328  -5.950  0.00  0.00    -0.326 N 
HETATM    5  C   UNN     0      22.971  24.146  -6.109  0.00  0.00     0.147 A 
HETATM    6  HN  UNN     0      22.892  25.958  -5.337  1.00  0.00     0.169 HD
HETATM    7  N   UNN     0      21.889  23.712  -5.413  0.00  0.00    -0.276 N 
HETATM    8  C   UNN     0      23.577  23.278  -6.945  0.00  0.00     0.115 A 
HETATM    9  C   UNN     0      21.300  22.496  -5.657  0.00  0.00     0.262 C 
HETATM   10  O   UNN     0      20.463  22.010  -4.936  0.00  0.00    -0.269 OA
HETATM   11  C   UNN     0      21.751  21.819  -6.952  0.00  0.00     0.141 C 
HETATM   12  O   UNN     0      23.115  22.014  -7.186  0.00  0.00    -0.327 OA
HETATM   13  C   UNN     0      21.509  20.307  -6.904  0.00  0.00     0.057 C 
HETATM   14  C   UNN     0      20.947  22.434  -8.106  0.00  0.00     0.057 C 
HETATM   15  C   UNN     0      24.670  23.720  -7.588  0.00  0.00     0.044 A 
HETATM   16  C   UNN     0      25.129  24.955  -7.353  0.00  0.00     0.051 A 
BRANCH   7  17
HETATM   17  C   UNN     0      21.369  24.513  -4.293  0.00  0.00     0.316 C 
BRANCH  17  18
HETATM   18  O   UNN     0      22.143  24.336  -3.119  0.00  0.00    -0.277 OA
BRANCH  18  19
HETATM   19  P   UNN     0      21.482  23.566  -1.881  0.00  0.00     0.392 P 
HETATM   20  O   UNN     0      21.462  24.331  -0.609  0.00  0.00    -0.632 OA
BRANCH  19  21
HETATM   21  O   UNN     0      22.023  22.082  -1.546  0.00  0.00    -0.307 OA
HETATM   22  H   UNN     0      22.010  21.952  -0.615  0.00  0.00     0.222 HD
ENDBRANCH  19  21
BRANCH  19  23
HETATM   23  O   UNN     0      19.921  23.186  -2.118  0.00  0.00    -0.307 OA
HETATM   24  H   UNN     0      19.790  22.300  -1.832  0.00  0.00     0.222 HD
ENDBRANCH  19  23
ENDBRANCH  18  19
ENDBRANCH  17  18
ENDBRANCH   7  17
ENDBRANCH   1   3
BRANCH   1  25
HETATM   25  C   UNN     0      25.991  27.305  -5.672  0.00  0.00     0.163 A 
HETATM   26  N   UNN     0      27.216  27.111  -5.936  0.00  0.00    -0.173 N 
HETATM   27  C   UNN     0      28.162  27.602  -5.241  0.00  0.00     0.684 A 
HETATM   28  HN  UNN     0      27.454  26.535  -6.743  1.00  0.00     0.186 HD
HETATM   29  N   UNN     0      27.908  28.354  -4.247  0.00  0.00    -0.199 N 
HETATM   30  C   UNN     0      26.710  28.549  -3.898  0.00  0.00     0.152 A 
HETATM   31  HN  UNN     0      28.670  28.798  -3.735  1.00  0.00     0.183 HD
HETATM   32  C   UNN     0      25.682  28.028  -4.578  0.00  0.00     0.176 A 
HETATM   33  F   UNN     0      24.432  28.244  -4.194  0.00  0.00    -0.201 F 
BRANCH  27  34
HETATM   34  N   UNN     0      29.404  27.418  -5.465  0.00  0.00    -0.191 N 
HETATM   35  H   UNN     0      29.621  26.416  -5.698  0.00  0.00     0.184 HD
BRANCH  34  36
HETATM   36  C   UNN     0      30.444  28.154  -5.474  0.00  0.00     0.054 A 
HETATM   37  C   UNN     0      31.405  27.864  -4.583  0.00  0.00     0.069 A 
HETATM   38  C   UNN     0      32.545  28.575  -4.485  0.00  0.00     0.106 A 
HETATM   39  C   UNN     0      32.711  29.631  -5.315  0.00  0.00     0.135 A 
HETATM   40  C   UNN     0      31.807  29.904  -6.284  0.00  0.00     0.106 A 
HETATM   41  C   UNN     0      30.690  29.155  -6.332  0.00  0.00     0.069 A 
BRANCH  38  42
HETATM   42  O   UNN     0      33.532  28.327  -3.557  0.00  0.00    -0.353 OA
HETATM   43  C   UNN     0      34.156  27.063  -3.535  0.00  0.00     0.210 C 
ENDBRANCH  38  42
BRANCH  39  44
HETATM   44  O   UNN     0      33.881  30.352  -5.261  0.00  0.00    -0.351 OA
HETATM   45  C   UNN     0      34.922  29.791  -6.031  0.00  0.00     0.210 C 
ENDBRANCH  39  44
BRANCH  40  46
HETATM   46  O   UNN     0      32.093  30.906  -7.186  0.00  0.00    -0.353 OA
HETATM   47  C   UNN     0      31.748  30.727  -8.542  0.00  0.00     0.210 C 
ENDBRANCH  40  46
ENDBRANCH  34  36
ENDBRANCH  27  34
ENDBRANCH   1  25
TORSDOF 12
ENDMDL
MODEL 6
REMARK VINA RESULT:      -6.2     33.924     37.447
REMARK  12 active torsions:
REMARK  status: ('A' for Active; 'I' for Inactive)
REMARK    1  A    between atoms: P_1  and  O_5 
REMARK    2  A    between atoms: P_1  and  O_6 
REMARK    3  A    between atoms: P_1  and  O_7 
REMARK    4  A    between atoms: O_5  and  C_27 
REMARK    5  A    between atoms: O_9  and  C_37 
REMARK    6  A    between atoms: O_10  and  C_38 
REMARK    7  A    between atoms: O_11  and  C_39 
REMARK    8  A    between atoms: N_12  and  C_27 
REMARK    9  A    between atoms: N_15  and  C_29 
REMARK   10  A    between atoms: N_15  and  C_31 
REMARK   11  A    between atoms: N_18  and  C_33 
REMARK   12  A    between atoms: N_18  and  C_34 
ROOT
HETATM    1  N   UNN     0      33.735  26.452  -3.400  0.00  0.00    -0.326 N 
HETATM    2  H   UNN     0      32.882  25.942  -3.051  0.00  0.00     0.169 HD
ENDROOT
BRANCH   1   3
HETATM    3  C   UNN     0      33.477  27.411  -4.196  0.00  0.00     0.108 A 
HETATM    4  N   UNN     0      32.333  27.714  -4.651  0.00  0.00    -0.326 N 
HETATM    5  C   UNN     0      32.144  28.638  -5.502  0.00  0.00     0.147 A 
HETATM    6  HN  UNN     0      31.525  27.189  -4.317  1.00  0.00     0.169 HD
HETATM    7  N   UNN     0      30.905  28.861  -6.014  0.00  0.00    -0.276 N 
HETATM    8  C   UNN     0      33.161  29.404  -5.947  0.00  0.00     0.115 A 
HETATM    9  C   UNN     0      30.631  29.933  -6.826  0.00  0.00     0.262 C 
HETATM   10  O   UNN     0      29.598  30.051  -7.440  0.00  0.00    -0.269 OA
HETATM   11  C   UNN     0      31.721  31.005  -6.854  0.00  0.00     0.141 C 
HETATM   12  O   UNN     0      32.998  30.441  -6.823  0.00  0.00    -0.327 OA
HETATM   13  C   UNN     0      31.631  31.858  -8.125  0.00  0.00     0.057 C 
HETATM   14  C   UNN     0      31.532  31.898  -5.620  0.00  0.00     0.057 C 
HETATM   15  C   UNN     0      34.381  29.134  -5.455  0.00  0.00     0.044 A 
HETATM   16  C   UNN     0      34.546  28.119  -4.599  0.00  0.00     0.051 A 
BRANCH   7  17
HETATM   17  C   UNN     0      29.830  27.883  -5.782  0.00  0.00     0.316 C 
BRANCH  17  18
HETATM   18  O   UNN     0      29.139  28.142  -4.572  0.00  0.00    -0.277 OA
BRANCH  18  19
HETATM   19  P   UNN     0      27.584  28.514  -4.649  0.00  0.00     0.392 P 
HETATM   20  O   UNN     0      27.099  29.398  -3.559  0.00  0.00    -0.632 OA
BRANCH  19  21
HETATM   21  O   UNN     0      26.528  27.301  -4.795  0.00  0.00    -0.307 OA
HETATM   22  H   UNN     0      25.796  27.460  -4.227  0.00  0.00     0.222 HD
ENDBRANCH  19  21
BRANCH  19  23
HETATM   23  O   UNN     0      27.182  29.323  -5.998  0.00  0.00    -0.307 OA
HETATM   24  H   UNN     0      26.250  29.255  -6.112  0.00  0.00     0.222 HD
ENDBRANCH  19  23
ENDBRANCH  18  19
ENDBRANCH  17  18
ENDBRANCH   7  17
ENDBRANCH   1   3
BRANCH   1  25
HETATM   25  C   UNN     0      34.818  26.000  -2.910  0.00  0.00     0.163 A 
HETATM   26  N   UNN     0      35.826  25.557  -3.538  0.00  0.00    -0.173 N 
HETATM   27  C   UNN     0      36.894  25.181  -2.959  0.00  0.00     0.684 A 
HETATM   28  HN  UNN     0      35.778  25.499  -4.555  1.00  0.00     0.186 HD
HETATM   29  N   UNN     0      37.008  25.270  -1.696  0.00  0.00    -0.199 N 
HETATM   30  C   UNN     0      36.024  25.656  -1.003  0.00  0.00     0.152 A 
HETATM   31  HN  UNN     0      37.890  25.031  -1.243  1.00  0.00     0.183 HD
HETATM   32  C   UNN     0      34.868  26.031  -1.565  0.00  0.00     0.176 A 
HETATM   33  F   UNN     0      33.848  26.433  -0.819  0.00  0.00    -0.201 F 
BRANCH  27  34
HETATM   34  N   UNN     0      37.922  24.717  -3.553  0.00  0.00    -0.191 N 
HETATM   35  H   UNN     0      37.687  23.905  -4.179  0.00  0.00     0.184 HD
BRANCH  34  36
HETATM   36  C   UNN     0      39.165  24.997  -3.573  0.00  0.00     0.054 A 
HETATM   37  C   UNN     0      39.993  24.149  -2.941  0.00  0.00     0.069 A 
HETATM   38  C   UNN     0      41.325  24.343  -2.879  0.00  0.00     0.106 A 
HETATM   39  C   UNN     0      41.836  25.447  -3.470  0.00  0.00     0.135 A 
HETATM   40  C   UNN     0      41.049  26.281  -4.188  0.00  0.00     0.106 A 
HETATM   41  C   UNN     0      39.727  26.032  -4.215  0.00  0.00     0.069 A 
BRANCH  38  42
HETATM   42  O   UNN     0      42.194  23.512  -2.207  0.00  0.00    -0.353 OA
HETATM   43  C   UNN     0      42.149  23.459  -0.800  0.00  0.00     0.210 C 
ENDBRANCH  38  42
BRANCH  39  44
HETATM   44  O   UNN     0      43.196  25.650  -3.453  0.00  0.00    -0.351 OA
HETATM   45  C   UNN     0      43.622  26.512  -2.420  0.00  0.00     0.210 C 
ENDBRANCH  39  44
BRANCH  40  46
HETATM   46  O   UNN     0      41.645  27.313  -4.881  0.00  0.00    -0.353 OA
HETATM   47  C   UNN     0      41.040  27.785  -6.065  0.00  0.00     0.210 C 
ENDBRANCH  40  46
ENDBRANCH  34  36
ENDBRANCH  27  34
ENDBRANCH   1  25
TORSDOF 12
ENDMDL
MODEL 7
REMARK VINA RESULT:      -6.2     34.802     38.416
REMARK  12 active torsions:
REMARK  status: ('A' for Active; 'I' for Inactive)
REMARK    1  A    between atoms: P_1  and  O_5 
REMARK    2  A    between atoms: P_1  and  O_6 
REMARK    3  A    between atoms: P_1  and  O_7 
REMARK    4  A    between atoms: O_5  and  C_27 
REMARK    5  A    between atoms: O_9  and  C_37 
REMARK    6  A    between atoms: O_10  and  C_38 
REMARK    7  A    between atoms: O_11  and  C_39 
REMARK    8  A    between atoms: N_12  and  C_27 
REMARK    9  A    between atoms: N_15  and  C_29 
REMARK   10  A    between atoms: N_15  and  C_31 
REMARK   11  A    between atoms: N_18  and  C_33 
REMARK   12  A    between atoms: N_18  and  C_34 
ROOT
HETATM    1  N   UNN     0      23.540  24.883 -10.692  0.00  0.00    -0.326 N 
HETATM    2  H   UNN     0      23.563  25.748 -11.291  0.00  0.00     0.169 HD
ENDROOT
BRANCH   1   3
HETATM    3  C   UNN     0      22.499  24.168 -10.851  0.00  0.00     0.108 A 
HETATM    4  N   UNN     0      22.089  23.265 -10.061  0.00  0.00    -0.326 N 
HETATM    5  C   UNN     0      21.082  22.530 -10.305  0.00  0.00     0.147 A 
HETATM    6  HN  UNN     0      22.593  23.122  -9.185  1.00  0.00     0.169 HD
HETATM    7  N   UNN     0      20.740  21.524  -9.458  0.00  0.00    -0.276 N 
HETATM    8  C   UNN     0      20.340  22.700 -11.419  0.00  0.00     0.115 A 
HETATM    9  C   UNN     0      19.584  20.799  -9.611  0.00  0.00     0.262 C 
HETATM   10  O   UNN     0      19.350  19.789  -8.991  0.00  0.00    -0.269 OA
HETATM   11  C   UNN     0      18.581  21.401 -10.595  0.00  0.00     0.141 C 
HETATM   12  O   UNN     0      19.221  21.967 -11.700  0.00  0.00    -0.327 OA
HETATM   13  C   UNN     0      17.613  20.337 -11.124  0.00  0.00     0.057 C 
HETATM   14  C   UNN     0      17.793  22.491  -9.853  0.00  0.00     0.057 C 
HETATM   15  C   UNN     0      20.726  23.674 -12.259  0.00  0.00     0.044 A 
HETATM   16  C   UNN     0      21.823  24.392 -11.990  0.00  0.00     0.051 A 
BRANCH   7  17
HETATM   17  C   UNN     0      21.669  21.118  -8.391  0.00  0.00     0.316 C 
BRANCH  17  18
HETATM   18  O   UNN     0      21.505  21.906  -7.226  0.00  0.00    -0.277 OA
BRANCH  18  19
HETATM   19  P   UNN     0      20.679  21.291  -6.001  0.00  0.00     0.392 P 
HETATM   20  O   UNN     0      19.266  21.736  -5.914  0.00  0.00    -0.632 OA
BRANCH  19  21
HETATM   21  O   UNN     0      21.319  21.419  -4.523  0.00  0.00    -0.307 OA
HETATM   22  H   UNN     0      20.835  20.874  -3.930  0.00  0.00     0.222 HD
ENDBRANCH  19  21
BRANCH  19  23
HETATM   23  O   UNN     0      20.562  19.672  -6.052  0.00  0.00    -0.307 OA
HETATM   24  H   UNN     0      19.905  19.407  -5.433  0.00  0.00     0.222 HD
ENDBRANCH  19  23
ENDBRANCH  18  19
ENDBRANCH  17  18
ENDBRANCH   7  17
ENDBRANCH   1   3
BRANCH   1  25
HETATM   25  C   UNN     0      24.582  24.747  -9.976  0.00  0.00     0.163 A 
HETATM   26  N   UNN     0      24.724  25.040  -8.751  0.00  0.00    -0.173 N 
HETATM   27  C   UNN     0      25.792  24.810  -8.101  0.00  0.00     0.684 A 
HETATM   28  HN  UNN     0      23.944  25.482  -8.264  1.00  0.00     0.186 HD
HETATM   29  N   UNN     0      26.775  24.230  -8.662  0.00  0.00    -0.199 N 
HETATM   30  C   UNN     0      26.721  23.954  -9.893  0.00  0.00     0.152 A 
HETATM   31  HN  UNN     0      27.604  23.987  -8.119  1.00  0.00     0.183 HD
HETATM   32  C   UNN     0      25.630  24.207 -10.627  0.00  0.00     0.176 A 
HETATM   33  F   UNN     0      25.595  23.911 -11.919  0.00  0.00    -0.201 F 
BRANCH  27  34
HETATM   34  N   UNN     0      25.978  25.103  -6.874  0.00  0.00    -0.191 N 
HETATM   35  H   UNN     0      26.108  24.247  -6.277  0.00  0.00     0.184 HD
BRANCH  34  36
HETATM   36  C   UNN     0      26.045  26.179  -6.196  0.00  0.00     0.054 A 
HETATM   37  C   UNN     0      27.257  26.739  -6.054  0.00  0.00     0.069 A 
HETATM   38  C   UNN     0      27.460  27.869  -5.349  0.00  0.00     0.106 A 
HETATM   39  C   UNN     0      26.392  28.448  -4.754  0.00  0.00     0.135 A 
HETATM   40  C   UNN     0      25.142  27.966  -4.942  0.00  0.00     0.106 A 
HETATM   41  C   UNN     0      25.005  26.835  -5.659  0.00  0.00     0.069 A 
BRANCH  38  42
HETATM   42  O   UNN     0      28.695  28.445  -5.154  0.00  0.00    -0.353 OA
HETATM   43  C   UNN     0      29.856  27.665  -5.328  0.00  0.00     0.210 C 
ENDBRANCH  38  42
BRANCH  39  44
HETATM   44  O   UNN     0      26.564  29.622  -4.059  0.00  0.00    -0.351 OA
HETATM   45  C   UNN     0      26.794  29.430  -2.680  0.00  0.00     0.210 C 
ENDBRANCH  39  44
BRANCH  40  46
HETATM   46  O   UNN     0      24.079  28.674  -4.424  0.00  0.00    -0.353 OA
HETATM   47  C   UNN     0      23.315  28.103  -3.385  0.00  0.00     0.210 C 
ENDBRANCH  40  46
ENDBRANCH  34  36
ENDBRANCH  27  34
ENDBRANCH   1  25
TORSDOF 12
ENDMDL
MODEL 8
REMARK VINA RESULT:      -6.2      3.921      5.855
REMARK  12 active torsions:
REMARK  status: ('A' for Active; 'I' for Inactive)
REMARK    1  A    between atoms: P_1  and  O_5 
REMARK    2  A    between atoms: P_1  and  O_6 
REMARK    3  A    between atoms: P_1  and  O_7 
REMARK    4  A    between atoms: O_5  and  C_27 
REMARK    5  A    between atoms: O_9  and  C_37 
REMARK    6  A    between atoms: O_10  and  C_38 
REMARK    7  A    between atoms: O_11  and  C_39 
REMARK    8  A    between atoms: N_12  and  C_27 
REMARK    9  A    between atoms: N_15  and  C_29 
REMARK   10  A    between atoms: N_15  and  C_31 
REMARK   11  A    between atoms: N_18  and  C_33 
REMARK   12  A    between atoms: N_18  and  C_34 
ROOT
HETATM    1  N   UNN     0      19.906  50.355  22.465  0.00  0.00    -0.326 N 
HETATM    2  H   UNN     0      18.857  50.260  22.462  0.00  0.00     0.169 HD
ENDROOT
BRANCH   1   3
HETATM    3  C   UNN     0      20.528  49.252  22.342  0.00  0.00     0.108 A 
HETATM    4  N   UNN     0      20.059  48.185  21.840  0.00  0.00    -0.326 N 
HETATM    5  C   UNN     0      20.700  47.089  21.809  0.00  0.00     0.147 A 
HETATM    6  HN  UNN     0      19.120  48.210  21.442  1.00  0.00     0.169 HD
HETATM    7  N   UNN     0      20.114  45.960  21.333  0.00  0.00    -0.276 N 
HETATM    8  C   UNN     0      21.964  47.000  22.272  0.00  0.00     0.115 A 
HETATM    9  C   UNN     0      20.812  44.792  21.152  0.00  0.00     0.262 C 
HETATM   10  O   UNN     0      20.282  43.735  20.911  0.00  0.00    -0.269 OA
HETATM   11  C   UNN     0      22.332  44.942  21.228  0.00  0.00     0.141 C 
HETATM   12  O   UNN     0      22.710  45.856  22.215  0.00  0.00    -0.327 OA
HETATM   13  C   UNN     0      23.007  43.607  21.561  0.00  0.00     0.057 C 
HETATM   14  C   UNN     0      22.823  45.440  19.861  0.00  0.00     0.057 C 
HETATM   15  C   UNN     0      22.504  48.121  22.776  0.00  0.00     0.044 A 
HETATM   16  C   UNN     0      21.777  49.243  22.837  0.00  0.00     0.051 A 
BRANCH   7  17
HETATM   17  C   UNN     0      18.663  45.937  21.084  0.00  0.00     0.316 C 
BRANCH  17  18
HETATM   18  O   UNN     0      18.332  46.569  19.860  0.00  0.00    -0.277 OA
BRANCH  18  19
HETATM   19  P   UNN     0      17.204  47.705  19.871  0.00  0.00     0.392 P 
HETATM   20  O   UNN     0      16.586  47.985  18.551  0.00  0.00    -0.632 OA
BRANCH  19  21
HETATM   21  O   UNN     0      17.577  49.126  20.542  0.00  0.00    -0.307 OA
HETATM   22  H   UNN     0      16.790  49.539  20.848  0.00  0.00     0.222 HD
ENDBRANCH  19  21
BRANCH  19  23
HETATM   23  O   UNN     0      15.933  47.341  20.813  0.00  0.00    -0.307 OA
HETATM   24  H   UNN     0      15.596  48.143  21.172  0.00  0.00     0.222 HD
ENDBRANCH  19  23
ENDBRANCH  18  19
ENDBRANCH  17  18
ENDBRANCH   7  17
ENDBRANCH   1   3
BRANCH   1  25
HETATM   25  C   UNN     0      20.295  51.562  22.557  0.00  0.00     0.163 A 
HETATM   26  N   UNN     0      20.802  52.137  23.567  0.00  0.00    -0.173 N 
HETATM   27  C   UNN     0      21.219  53.338  23.545  0.00  0.00     0.684 A 
HETATM   28  HN  UNN     0      20.880  51.611  24.437  1.00  0.00     0.186 HD
HETATM   29  N   UNN     0      21.173  54.017  22.470  0.00  0.00    -0.199 N 
HETATM   30  C   UNN     0      20.634  53.524  21.440  0.00  0.00     0.152 A 
HETATM   31  HN  UNN     0      21.570  54.956  22.441  1.00  0.00     0.183 HD
HETATM   32  C   UNN     0      20.152  52.275  21.424  0.00  0.00     0.176 A 
HETATM   33  F   UNN     0      19.589  51.777  20.331  0.00  0.00    -0.201 F 
BRANCH  27  34
HETATM   34  N   UNN     0      21.722  53.955  24.541  0.00  0.00    -0.191 N 
HETATM   35  H   UNN     0      22.559  53.455  24.937  0.00  0.00     0.184 HD
BRANCH  34  36
HETATM   36  C   UNN     0      21.457  55.029  25.174  0.00  0.00     0.054 A 
HETATM   37  C   UNN     0      20.168  55.404  25.229  0.00  0.00     0.069 A 
HETATM   38  C   UNN     0      19.762  56.525  25.855  0.00  0.00     0.106 A 
HETATM   39  C   UNN     0      20.702  57.305  26.438  0.00  0.00     0.135 A 
HETATM   40  C   UNN     0      21.999  56.921  26.480  0.00  0.00     0.106 A 
HETATM   41  C   UNN     0      22.340  55.788  25.838  0.00  0.00     0.069 A 
BRANCH  38  42
HETATM   42  O   UNN     0      18.455  56.956  25.896  0.00  0.00    -0.353 OA
HETATM   43  C   UNN     0      17.796  57.277  24.692  0.00  0.00     0.210 C 
ENDBRANCH  38  42
BRANCH  39  44
HETATM   44  O   UNN     0      20.312  58.436  27.115  0.00  0.00    -0.351 OA
HETATM   45  C   UNN     0      20.379  59.610  26.334  0.00  0.00     0.210 C 
ENDBRANCH  39  44
BRANCH  40  46
HETATM   46  O   UNN     0      22.888  57.685  27.204  0.00  0.00    -0.353 OA
HETATM   47  C   UNN     0      23.965  57.051  27.858  0.00  0.00     0.210 C 
ENDBRANCH  40  46
ENDBRANCH  34  36
ENDBRANCH  27  34
ENDBRANCH   1  25
TORSDOF 12
ENDMDL
MODEL 9
REMARK VINA RESULT:      -6.1     20.686     22.921
REMARK  12 active torsions:
REMARK  status: ('A' for Active; 'I' for Inactive)
REMARK    1  A    between atoms: P_1  and  O_5 
REMARK    2  A    between atoms: P_1  and  O_6 
REMARK    3  A    between atoms: P_1  and  O_7 
REMARK    4  A    between atoms: O_5  and  C_27 
REMARK    5  A    between atoms: O_9  and  C_37 
REMARK    6  A    between atoms: O_10  and  C_38 
REMARK    7  A    between atoms: O_11  and  C_39 
REMARK    8  A    between atoms: N_12  and  C_27 
REMARK    9  A    between atoms: N_15  and  C_29 
REMARK   10  A    between atoms: N_15  and  C_31 
REMARK   11  A    between atoms: N_18  and  C_33 
REMARK   12  A    between atoms: N_18  and  C_34 
ROOT
HETATM    1  N   UNN     0      27.188  48.253  44.105  0.00  0.00    -0.326 N 
HETATM    2  H   UNN     0      26.360  47.605  44.154  0.00  0.00     0.169 HD
ENDROOT
BRANCH   1   3
HETATM    3  C   UNN     0      28.226  47.731  43.586  0.00  0.00     0.108 A 
HETATM    4  N   UNN     0      28.458  47.612  42.345  0.00  0.00    -0.326 N 
HETATM    5  C   UNN     0      29.479  47.015  41.880  0.00  0.00     0.147 A 
HETATM    6  HN  UNN     0      27.792  48.018  41.687  1.00  0.00     0.169 HD
HETATM    7  N   UNN     0      29.630  46.849  40.541  0.00  0.00    -0.276 N 
HETATM    8  C   UNN     0      30.424  46.501  42.694  0.00  0.00     0.115 A 
HETATM    9  C   UNN     0      30.780  46.336  39.992  0.00  0.00     0.262 C 
HETATM   10  O   UNN     0      30.870  46.008  38.834  0.00  0.00    -0.269 OA
HETATM   11  C   UNN     0      31.966  46.261  40.954  0.00  0.00     0.141 C 
HETATM   12  O   UNN     0      31.562  45.894  42.240  0.00  0.00    -0.327 OA
HETATM   13  C   UNN     0      32.996  45.227  40.488  0.00  0.00     0.057 C 
HETATM   14  C   UNN     0      32.617  47.651  41.005  0.00  0.00     0.057 C 
HETATM   15  C   UNN     0      30.227  46.642  44.015  0.00  0.00     0.044 A 
HETATM   16  C   UNN     0      29.113  47.233  44.464  0.00  0.00     0.051 A 
BRANCH   7  17
HETATM   17  C   UNN     0      28.506  47.134  39.635  0.00  0.00     0.316 C 
BRANCH  17  18
HETATM   18  O   UNN     0      28.427  48.512  39.315  0.00  0.00    -0.277 OA
BRANCH  18  19
HETATM   19  P   UNN     0      28.026  48.923  37.820  0.00  0.00     0.392 P 
HETATM   20  O   UNN     0      29.165  49.319  36.955  0.00  0.00    -0.632 OA
BRANCH  19  21
HETATM   21  O   UNN     0      26.867  50.031  37.632  0.00  0.00    -0.307 OA
HETATM   22  H   UNN     0      27.125  50.824  38.066  0.00  0.00     0.222 HD
ENDBRANCH  19  21
BRANCH  19  23
HETATM   23  O   UNN     0      27.321  47.720  36.989  0.00  0.00    -0.307 OA
HETATM   24  H   UNN     0      27.278  47.976  36.085  0.00  0.00     0.222 HD
ENDBRANCH  19  23
ENDBRANCH  18  19
ENDBRANCH  17  18
ENDBRANCH   7  17
ENDBRANCH   1   3
BRANCH   1  25
HETATM   25  C   UNN     0      26.935  49.417  44.550  0.00  0.00     0.163 A 
HETATM   26  N   UNN     0      27.192  50.529  43.998  0.00  0.00    -0.173 N 
HETATM   27  C   UNN     0      26.844  51.647  44.494  0.00  0.00     0.684 A 
HETATM   28  HN  UNN     0      27.703  50.527  43.115  1.00  0.00     0.186 HD
HETATM   29  N   UNN     0      26.176  51.692  45.575  0.00  0.00    -0.199 N 
HETATM   30  C   UNN     0      25.928  50.625  46.204  0.00  0.00     0.152 A 
HETATM   31  HN  UNN     0      25.842  52.587  45.933  1.00  0.00     0.183 HD
HETATM   32  C   UNN     0      26.302  49.427  45.738  0.00  0.00     0.176 A 
HETATM   33  F   UNN     0      26.032  48.319  46.415  0.00  0.00    -0.201 F 
BRANCH  27  34
HETATM   34  N   UNN     0      27.096  52.786  43.977  0.00  0.00    -0.191 N 
HETATM   35  H   UNN     0      27.980  53.209  44.361  0.00  0.00     0.184 HD
BRANCH  34  36
HETATM   36  C   UNN     0      26.538  53.535  43.112  0.00  0.00     0.054 A 
HETATM   37  C   UNN     0      26.991  53.453  41.850  0.00  0.00     0.069 A 
HETATM   38  C   UNN     0      26.493  54.203  40.848  0.00  0.00     0.106 A 
HETATM   39  C   UNN     0      25.504  55.080  41.140  0.00  0.00     0.135 A 
HETATM   40  C   UNN     0      24.961  55.132  42.377  0.00  0.00     0.106 A 
HETATM   41  C   UNN     0      25.502  54.356  43.335  0.00  0.00     0.069 A 
BRANCH  38  42
HETATM   42  O   UNN     0      26.961  54.170  39.553  0.00  0.00    -0.353 OA
HETATM   43  C   UNN     0      28.103  53.400  39.252  0.00  0.00     0.210 C 
ENDBRANCH  38  42
BRANCH  39  44
HETATM   44  O   UNN     0      24.952  55.832  40.128  0.00  0.00    -0.351 OA
HETATM   45  C   UNN     0      25.608  57.064  39.922  0.00  0.00     0.210 C 
ENDBRANCH  39  44
BRANCH  40  46
HETATM   46  O   UNN     0      23.867  55.946  42.582  0.00  0.00    -0.353 OA
HETATM   47  C   UNN     0      24.028  57.140  43.316  0.00  0.00     0.210 C 
ENDBRANCH  40  46
ENDBRANCH  34  36
ENDBRANCH  27  34
ENDBRANCH   1  25
TORSDOF 12
ENDMDL
