REMARK  12 active torsions:
REMARK  status: ('A' for Active; 'I' for Inactive)
REMARK    1  A    between atoms: N_1  and  C_13 
REMARK    2  A    between atoms: N_2  and  C_14 
REMARK    3  A    between atoms: N_4  and  C_24 
REMARK    4  A    between atoms: C_5  and  C_6 
REMARK    5  A    between atoms: C_5  and  C_7 
REMARK    6  A    between atoms: C_6  and  C_8 
REMARK    7  A    between atoms: C_7  and  C_9 
REMARK    8  A    between atoms: C_8  and  C_10 
REMARK    9  A    between atoms: C_9  and  C_11 
REMARK   10  A    between atoms: C_10  and  C_12 
REMARK   11  A    between atoms: C_11  and  C_13 
REMARK   12  A    between atoms: C_12  and  C_14 
ROOT
HETATM    1  C   UNN     0       0.569  -0.374   0.514  0.00  0.00     0.000 C 
ENDROOT
BRANCH   1   2
HETATM    2  C   UNN     0      -0.567  -0.359  -0.524  0.00  0.00     0.000 C 
BRANCH   2   3
HETATM    3  C   UNN     0      -1.957  -0.364   0.135  0.00  0.00     0.000 C 
BRANCH   3   4
HETATM    4  C   UNN     0      -3.092  -0.362  -0.904  0.00  0.00     0.002 C 
BRANCH   4   5
HETATM    5  C   UNN     0      -4.483  -0.350  -0.249  0.00  0.00     0.020 C 
BRANCH   5   6
HETATM    6  C   UNN     0      -5.615  -0.365  -1.292  0.00  0.00     0.129 C 
BRANCH   6   7
HETATM    7  N   UNN     0      -7.010  -0.327  -0.635  0.00  0.00    -0.350 N 
HETATM    8  C   UNN     0      -7.567   0.804  -0.245  0.00  0.00     0.047 A 
HETATM    9  C   UNN     0      -8.799   0.847   0.320  0.00  0.00     0.017 A 
HETATM   10  C   UNN     0      -6.926   1.986  -0.382  0.00  0.00     0.030 A 
HETATM   11  C   UNN     0      -9.480  -0.300   0.494  0.00  0.00     0.040 A 
HETATM   12  C   UNN     0      -9.337   2.022   0.704  0.00  0.00     0.016 A 
HETATM   13  C   UNN     0      -8.906  -1.444   0.105  0.00  0.00     0.054 A 
HETATM   14  C   UNN     0      -7.684  -1.440  -0.451  0.00  0.00     0.010 A 
HETATM   15  C   UNN     0      -7.081  -2.770  -0.858  0.00  0.00     0.068 C 
HETATM   16  C   UNN     0      -8.678   3.178   0.548  0.00  0.00     0.001 A 
HETATM   17  C   UNN     0      -7.458   3.156   0.001  0.00  0.00     0.002 A 
BRANCH  11  18
HETATM   18  N   UNN     0     -10.637  -0.381   1.009  0.00  0.00    -0.398 N 
HETATM   19  H   UNN     0     -11.106  -1.313   1.115  0.00  0.00     0.156 HD
HETATM   20  H   UNN     0     -11.164   0.459   1.345  0.00  0.00     0.156 HD
ENDBRANCH  11  18
ENDBRANCH   6   7
ENDBRANCH   5   6
ENDBRANCH   4   5
ENDBRANCH   3   4
ENDBRANCH   2   3
ENDBRANCH   1   2
BRANCH   1  21
HETATM   21  C   UNN     0       1.960  -0.351  -0.145  0.00  0.00     0.000 C 
BRANCH  21  22
HETATM   22  C   UNN     0       3.094  -0.381   0.893  0.00  0.00     0.002 C 
BRANCH  22  23
HETATM   23  C   UNN     0       4.486  -0.341   0.238  0.00  0.00     0.020 C 
BRANCH  23  24
HETATM   24  C   UNN     0       5.617  -0.385   1.280  0.00  0.00     0.129 C 
BRANCH  24  25
HETATM   25  N   UNN     0       7.012  -0.316   0.625  0.00  0.00    -0.350 N 
HETATM   26  C   UNN     0       7.562   0.831   0.272  0.00  0.00     0.047 A 
HETATM   27  C   UNN     0       8.794   0.900  -0.291  0.00  0.00     0.017 A 
HETATM   28  C   UNN     0       6.915   2.004   0.451  0.00  0.00     0.030 A 
HETATM   29  C   UNN     0       9.481  -0.236  -0.505  0.00  0.00     0.040 A 
HETATM   30  C   UNN     0       9.324   2.091  -0.635  0.00  0.00     0.016 A 
HETATM   31  N   UNN     0      10.638  -0.293  -1.024  0.00  0.00    -0.398 N 
HETATM   32  C   UNN     0       8.913  -1.396  -0.155  0.00  0.00     0.054 A 
HETATM   33  H   UNN     0      11.112  -1.219  -1.161  0.00  0.00     0.156 HD
HETATM   34  H   UNN     0      11.160   0.561  -1.330  0.00  0.00     0.156 HD
HETATM   35  C   UNN     0       7.692  -1.418   0.401  0.00  0.00     0.010 A 
HETATM   36  C   UNN     0       7.097  -2.765   0.762  0.00  0.00     0.068 C 
HETATM   37  C   UNN     0       8.659   3.237  -0.440  0.00  0.00     0.001 A 
HETATM   38  C   UNN     0       7.440   3.189   0.107  0.00  0.00     0.002 A 
ENDBRANCH  24  25
ENDBRANCH  23  24
ENDBRANCH  22  23
ENDBRANCH  21  22
ENDBRANCH   1  21
TORSDOF 12
