MODEL 1
REMARK VINA RESULT:      -4.8      0.000      0.000
REMARK  6 active torsions:
REMARK  status: ('A' for Active; 'I' for Inactive)
REMARK    1  A    between atoms: C_1  and  C_3 
REMARK    2  A    between atoms: C_1  and  O_9 
REMARK    3  A    between atoms: N_2  and  C_3 
REMARK    4  A    between atoms: C_3  and  C_4 
REMARK    5  A    between atoms: C_4  and  C_5 
REMARK    6  A    between atoms: C_5  and  O_7 
ROOT
HETATM    1  C           1     -16.104   7.649  18.566  0.00  0.00     0.324 C 
ENDROOT
BRANCH   1   2
HETATM    2  C           1     -16.656   6.235  18.555  0.00  0.00     0.174 C 
HETATM    3  O           1     -17.781   5.930  18.240  0.00  0.00    -0.648 OA
BRANCH   2   4
HETATM    4  O           1     -15.758   5.313  18.948  0.00  0.00    -0.775 OA
HETATM    5  H           1     -15.481   5.515  19.856  0.00  0.00     0.167 HD
ENDBRANCH   2   4
ENDBRANCH   1   2
BRANCH   1   6
HETATM    6  N           1     -15.042   7.714  19.583  0.00  0.00     0.093 N 
HETATM    7  H           1     -15.081   8.607  20.104  0.00  0.00     0.314 HD
HETATM    8  H           1     -15.178   6.978  20.297  0.00  0.00     0.314 HD
ENDBRANCH   1   6
BRANCH   1   9
HETATM    9  C           1     -15.558   8.187  17.231  0.00  0.00     0.156 C 
BRANCH   9  10
HETATM   10  C           1     -14.151   8.757  17.254  0.00  0.00     0.141 C 
HETATM   11  O           1     -13.852   9.917  17.401  0.00  0.00    -0.650 OA
BRANCH  10  12
HETATM   12  O           1     -13.213   7.809  17.068  0.00  0.00    -0.776 OA
HETATM   13  H           1     -13.543   7.173  16.414  0.00  0.00     0.167 HD
ENDBRANCH  10  12
ENDBRANCH   9  10
ENDBRANCH   1   9
TORSDOF 6
ENDMDL
MODEL 2
REMARK VINA RESULT:      -4.7      2.309      2.665
REMARK  6 active torsions:
REMARK  status: ('A' for Active; 'I' for Inactive)
REMARK    1  A    between atoms: C_1  and  C_3 
REMARK    2  A    between atoms: C_1  and  O_9 
REMARK    3  A    between atoms: N_2  and  C_3 
REMARK    4  A    between atoms: C_3  and  C_4 
REMARK    5  A    between atoms: C_4  and  C_5 
REMARK    6  A    between atoms: C_5  and  O_7 
ROOT
HETATM    1  C           1     -17.317   8.033  17.246  0.00  0.00     0.324 C 
ENDROOT
BRANCH   1   2
HETATM    2  C           1     -18.117   6.755  17.072  0.00  0.00     0.174 C 
HETATM    3  O           1     -18.758   6.463  16.090  0.00  0.00    -0.648 OA
BRANCH   2   4
HETATM    4  O           1     -18.057   5.942  18.143  0.00  0.00    -0.775 OA
HETATM    5  H           1     -18.923   5.522  18.263  0.00  0.00     0.167 HD
ENDBRANCH   2   4
ENDBRANCH   1   2
BRANCH   1   6
HETATM    6  N           1     -18.043   8.896  18.191  0.00  0.00     0.093 N 
HETATM    7  H           1     -17.389   9.492  18.727  0.00  0.00     0.314 HD
HETATM    8  H           1     -18.657   9.557  17.683  0.00  0.00     0.314 HD
ENDBRANCH   1   6
BRANCH   1   9
HETATM    9  C           1     -15.861   7.878  17.719  0.00  0.00     0.156 C 
BRANCH   9  10
HETATM   10  C           1     -15.634   7.863  19.220  0.00  0.00     0.141 C 
HETATM   11  O           1     -15.563   8.828  19.942  0.00  0.00    -0.650 OA
BRANCH  10  12
HETATM   12  O           1     -15.492   6.613  19.703  0.00  0.00    -0.776 OA
HETATM   13  H           1     -16.370   6.202  19.753  0.00  0.00     0.167 HD
ENDBRANCH  10  12
ENDBRANCH   9  10
ENDBRANCH   1   9
TORSDOF 6
ENDMDL
MODEL 3
REMARK VINA RESULT:      -4.7      2.244      3.589
REMARK  6 active torsions:
REMARK  status: ('A' for Active; 'I' for Inactive)
REMARK    1  A    between atoms: C_1  and  C_3 
REMARK    2  A    between atoms: C_1  and  O_9 
REMARK    3  A    between atoms: N_2  and  C_3 
REMARK    4  A    between atoms: C_3  and  C_4 
REMARK    5  A    between atoms: C_4  and  C_5 
REMARK    6  A    between atoms: C_5  and  O_7 
ROOT
HETATM    1  C           1     -15.956   8.245  18.217  0.00  0.00     0.324 C 
ENDROOT
BRANCH   1   2
HETATM    2  C           1     -15.593   8.059  19.679  0.00  0.00     0.174 C 
HETATM    3  O           1     -15.516   8.946  20.495  0.00  0.00    -0.648 OA
BRANCH   2   4
HETATM    4  O           1     -15.348   6.777  20.005  0.00  0.00    -0.775 OA
HETATM    5  H           1     -16.085   6.229  19.689  0.00  0.00     0.167 HD
ENDBRANCH   2   4
ENDBRANCH   1   2
BRANCH   1   6
HETATM    6  N           1     -15.200   7.255  17.433  0.00  0.00     0.093 N 
HETATM    7  H           1     -14.904   7.650  16.524  0.00  0.00     0.314 HD
HETATM    8  H           1     -14.322   7.003  17.918  0.00  0.00     0.314 HD
ENDBRANCH   1   6
BRANCH   1   9
HETATM    9  C           1     -17.449   8.141  17.857  0.00  0.00     0.156 C 
BRANCH   9  10
HETATM   10  C           1     -17.934   6.792  17.357  0.00  0.00     0.141 C 
HETATM   11  O           1     -18.365   6.551  16.256  0.00  0.00    -0.650 OA
BRANCH  10  12
HETATM   12  O           1     -17.854   5.838  18.304  0.00  0.00    -0.776 OA
HETATM   13  H           1     -17.200   5.178  18.022  0.00  0.00     0.167 HD
ENDBRANCH  10  12
ENDBRANCH   9  10
ENDBRANCH   1   9
TORSDOF 6
ENDMDL
MODEL 4
REMARK VINA RESULT:      -4.4      1.267      4.001
REMARK  6 active torsions:
REMARK  status: ('A' for Active; 'I' for Inactive)
REMARK    1  A    between atoms: C_1  and  C_3 
REMARK    2  A    between atoms: C_1  and  O_9 
REMARK    3  A    between atoms: N_2  and  C_3 
REMARK    4  A    between atoms: C_3  and  C_4 
REMARK    5  A    between atoms: C_4  and  C_5 
REMARK    6  A    between atoms: C_5  and  O_7 
ROOT
HETATM    1  C           1     -15.349   7.743  17.576  0.00  0.00     0.324 C 
ENDROOT
BRANCH   1   2
HETATM    2  C           1     -14.136   8.595  17.249  0.00  0.00     0.174 C 
HETATM    3  O           1     -14.154   9.788  17.061  0.00  0.00    -0.648 OA
BRANCH   2   4
HETATM    4  O           1     -12.995   7.885  17.178  0.00  0.00    -0.775 OA
HETATM    5  H           1     -12.656   7.750  18.077  0.00  0.00     0.167 HD
ENDBRANCH   2   4
ENDBRANCH   1   2
BRANCH   1   6
HETATM    6  N           1     -15.323   7.451  19.018  0.00  0.00     0.093 N 
HETATM    7  H           1     -14.869   8.217  19.544  0.00  0.00     0.314 HD
HETATM    8  H           1     -16.285   7.397  19.395  0.00  0.00     0.314 HD
ENDBRANCH   1   6
BRANCH   1   9
HETATM    9  C           1     -16.724   8.327  17.203  0.00  0.00     0.156 C 
BRANCH   9  10
HETATM   10  C           1     -17.932   7.452  17.487  0.00  0.00     0.141 C 
HETATM   11  O           1     -17.914   6.339  17.956  0.00  0.00    -0.650 OA
BRANCH  10  12
HETATM   12  O           1     -19.088   8.047  17.138  0.00  0.00    -0.776 OA
HETATM   13  H           1     -18.933   9.003  17.068  0.00  0.00     0.167 HD
ENDBRANCH  10  12
ENDBRANCH   9  10
ENDBRANCH   1   9
TORSDOF 6
ENDMDL
MODEL 5
REMARK VINA RESULT:      -4.2      1.539      1.837
REMARK  6 active torsions:
REMARK  status: ('A' for Active; 'I' for Inactive)
REMARK    1  A    between atoms: C_1  and  C_3 
REMARK    2  A    between atoms: C_1  and  O_9 
REMARK    3  A    between atoms: N_2  and  C_3 
REMARK    4  A    between atoms: C_3  and  C_4 
REMARK    5  A    between atoms: C_4  and  C_5 
REMARK    6  A    between atoms: C_5  and  O_7 
ROOT
HETATM    1  C           1     -16.226   7.159  18.436  0.00  0.00     0.324 C 
ENDROOT
BRANCH   1   2
HETATM    2  C           1     -17.518   7.465  17.699  0.00  0.00     0.174 C 
HETATM    3  O           1     -17.859   8.559  17.318  0.00  0.00    -0.648 OA
BRANCH   2   4
HETATM    4  O           1     -18.285   6.377  17.501  0.00  0.00    -0.775 OA
HETATM    5  H           1     -17.946   5.894  16.730  0.00  0.00     0.167 HD
ENDBRANCH   2   4
ENDBRANCH   1   2
BRANCH   1   6
HETATM    6  N           1     -15.525   6.095  17.700  0.00  0.00     0.093 N 
HETATM    7  H           1     -15.526   6.284  16.683  0.00  0.00     0.314 HD
HETATM    8  H           1     -14.527   6.064  17.970  0.00  0.00     0.314 HD
ENDBRANCH   1   6
BRANCH   1   9
HETATM    9  C           1     -15.262   8.339  18.659  0.00  0.00     0.156 C 
BRANCH   9  10
HETATM   10  C           1     -14.345   8.693  17.501  0.00  0.00     0.141 C 
HETATM   11  O           1     -14.495   9.605  16.724  0.00  0.00    -0.650 OA
BRANCH  10  12
HETATM   12  O           1     -13.303   7.847  17.398  0.00  0.00    -0.776 OA
HETATM   13  H           1     -12.482   8.361  17.460  0.00  0.00     0.167 HD
ENDBRANCH  10  12
ENDBRANCH   9  10
ENDBRANCH   1   9
TORSDOF 6
ENDMDL
MODEL 6
REMARK VINA RESULT:      -4.2      2.122      3.598
REMARK  6 active torsions:
REMARK  status: ('A' for Active; 'I' for Inactive)
REMARK    1  A    between atoms: C_1  and  C_3 
REMARK    2  A    between atoms: C_1  and  O_9 
REMARK    3  A    between atoms: N_2  and  C_3 
REMARK    4  A    between atoms: C_3  and  C_4 
REMARK    5  A    between atoms: C_4  and  C_5 
REMARK    6  A    between atoms: C_5  and  O_7 
ROOT
HETATM    1  C           1     -15.385   8.489  19.087  0.00  0.00     0.324 C 
ENDROOT
BRANCH   1   2
HETATM    2  C           1     -15.989   9.646  19.863  0.00  0.00     0.174 C 
HETATM    3  O           1     -16.617  10.556  19.378  0.00  0.00    -0.648 OA
BRANCH   2   4
HETATM    4  O           1     -15.755   9.575  21.186  0.00  0.00    -0.775 OA
HETATM    5  H           1     -14.901   9.136  21.328  0.00  0.00     0.167 HD
ENDBRANCH   2   4
ENDBRANCH   1   2
BRANCH   1   6
HETATM    6  N           1     -15.204   7.364  20.018  0.00  0.00     0.093 N 
HETATM    7  H           1     -16.080   6.824  20.123  0.00  0.00     0.314 HD
HETATM    8  H           1     -14.514   6.690  19.643  0.00  0.00     0.314 HD
ENDBRANCH   1   6
BRANCH   1   9
HETATM    9  C           1     -16.166   8.003  17.852  0.00  0.00     0.156 C 
BRANCH   9  10
HETATM   10  C           1     -16.703   6.584  17.905  0.00  0.00     0.141 C 
HETATM   11  O           1     -17.846   6.260  18.120  0.00  0.00    -0.650 OA
BRANCH  10  12
HETATM   12  O           1     -15.740   5.666  17.697  0.00  0.00    -0.776 OA
HETATM   13  H           1     -14.894   6.033  17.999  0.00  0.00     0.167 HD
ENDBRANCH  10  12
ENDBRANCH   9  10
ENDBRANCH   1   9
TORSDOF 6
ENDMDL
MODEL 7
REMARK VINA RESULT:      -4.1     17.204     18.107
REMARK  6 active torsions:
REMARK  status: ('A' for Active; 'I' for Inactive)
REMARK    1  A    between atoms: C_1  and  C_3 
REMARK    2  A    between atoms: C_1  and  O_9 
REMARK    3  A    between atoms: N_2  and  C_3 
REMARK    4  A    between atoms: C_3  and  C_4 
REMARK    5  A    between atoms: C_4  and  C_5 
REMARK    6  A    between atoms: C_5  and  O_7 
ROOT
HETATM    1  C           1      -3.173  -1.810   7.163  0.00  0.00     0.324 C 
ENDROOT
BRANCH   1   2
HETATM    2  C           1      -3.989  -3.084   7.279  0.00  0.00     0.174 C 
HETATM    3  O           1      -4.443  -3.707   6.350  0.00  0.00    -0.648 OA
BRANCH   2   4
HETATM    4  O           1      -4.180  -3.477   8.553  0.00  0.00    -0.775 OA
HETATM    5  H           1      -5.107  -3.316   8.792  0.00  0.00     0.167 HD
ENDBRANCH   2   4
ENDBRANCH   1   2
BRANCH   1   6
HETATM    6  N           1      -4.093  -0.711   6.829  0.00  0.00     0.093 N 
HETATM    7  H           1      -4.899  -0.691   7.478  0.00  0.00     0.314 HD
HETATM    8  H           1      -3.625   0.204   6.951  0.00  0.00     0.314 HD
ENDBRANCH   1   6
BRANCH   1   9
HETATM    9  C           1      -2.335  -1.412   8.392  0.00  0.00     0.156 C 
BRANCH   9  10
HETATM   10  C           1      -2.870  -0.269   9.236  0.00  0.00     0.141 C 
HETATM   11  O           1      -2.409   0.845   9.304  0.00  0.00    -0.650 OA
BRANCH  10  12
HETATM   12  O           1      -3.951  -0.626   9.954  0.00  0.00    -0.776 OA
HETATM   13  H           1      -4.560  -1.110   9.374  0.00  0.00     0.167 HD
ENDBRANCH  10  12
ENDBRANCH   9  10
ENDBRANCH   1   9
TORSDOF 6
ENDMDL
MODEL 8
REMARK VINA RESULT:      -4.1      2.033      2.431
REMARK  6 active torsions:
REMARK  status: ('A' for Active; 'I' for Inactive)
REMARK    1  A    between atoms: C_1  and  C_3 
REMARK    2  A    between atoms: C_1  and  O_9 
REMARK    3  A    between atoms: N_2  and  C_3 
REMARK    4  A    between atoms: C_3  and  C_4 
REMARK    5  A    between atoms: C_4  and  C_5 
REMARK    6  A    between atoms: C_5  and  O_7 
ROOT
HETATM    1  C           1     -15.985   7.266  18.705  0.00  0.00     0.324 C 
ENDROOT
BRANCH   1   2
HETATM    2  C           1     -16.694   5.930  18.573  0.00  0.00     0.174 C 
HETATM    3  O           1     -16.220   4.859  18.866  0.00  0.00    -0.648 OA
BRANCH   2   4
HETATM    4  O           1     -17.941   6.039  18.077  0.00  0.00    -0.775 OA
HETATM    5  H           1     -18.178   6.979  18.037  0.00  0.00     0.167 HD
ENDBRANCH   2   4
ENDBRANCH   1   2
BRANCH   1   6
HETATM    6  N           1     -15.016   7.375  17.603  0.00  0.00     0.093 N 
HETATM    7  H           1     -15.414   7.013  16.720  0.00  0.00     0.314 HD
HETATM    8  H           1     -14.793   8.368  17.412  0.00  0.00     0.314 HD
ENDBRANCH   1   6
BRANCH   1   9
HETATM    9  C           1     -16.875   8.522  18.721  0.00  0.00     0.156 C 
BRANCH   9  10
HETATM   10  C           1     -16.847   9.389  17.476  0.00  0.00     0.141 C 
HETATM   11  O           1     -16.207  10.402  17.325  0.00  0.00    -0.650 OA
BRANCH  10  12
HETATM   12  O           1     -17.653   8.917  16.506  0.00  0.00    -0.776 OA
HETATM   13  H           1     -17.902   9.655  15.926  0.00  0.00     0.167 HD
ENDBRANCH  10  12
ENDBRANCH   9  10
ENDBRANCH   1   9
TORSDOF 6
ENDMDL
MODEL 9
REMARK VINA RESULT:      -4.1      2.359      3.275
REMARK  6 active torsions:
REMARK  status: ('A' for Active; 'I' for Inactive)
REMARK    1  A    between atoms: C_1  and  C_3 
REMARK    2  A    between atoms: C_1  and  O_9 
REMARK    3  A    between atoms: N_2  and  C_3 
REMARK    4  A    between atoms: C_3  and  C_4 
REMARK    5  A    between atoms: C_4  and  C_5 
REMARK    6  A    between atoms: C_5  and  O_7 
ROOT
HETATM    1  C           1     -16.074   6.658  18.142  0.00  0.00     0.324 C 
ENDROOT
BRANCH   1   2
HETATM    2  C           1     -15.272   7.720  18.873  0.00  0.00     0.174 C 
HETATM    3  O           1     -15.491   8.109  19.995  0.00  0.00    -0.648 OA
BRANCH   2   4
HETATM    4  O           1     -14.259   8.217  18.138  0.00  0.00    -0.775 OA
HETATM    5  H           1     -13.655   7.492  17.911  0.00  0.00     0.167 HD
ENDBRANCH   2   4
ENDBRANCH   1   2
BRANCH   1   6
HETATM    6  N           1     -16.039   5.428  18.949  0.00  0.00     0.093 N 
HETATM    7  H           1     -16.773   5.440  19.677  0.00  0.00     0.314 HD
HETATM    8  H           1     -16.253   4.603  18.362  0.00  0.00     0.314 HD
ENDBRANCH   1   6
BRANCH   1   9
HETATM    9  C           1     -17.538   7.005  17.812  0.00  0.00     0.156 C 
BRANCH   9  10
HETATM   10  C           1     -17.817   8.436  17.390  0.00  0.00     0.141 C 
HETATM   11  O           1     -18.124   9.349  18.119  0.00  0.00    -0.650 OA
BRANCH  10  12
HETATM   12  O           1     -17.704   8.608  16.059  0.00  0.00    -0.776 OA
HETATM   13  H           1     -18.592   8.735  15.689  0.00  0.00     0.167 HD
ENDBRANCH  10  12
ENDBRANCH   9  10
ENDBRANCH   1   9
TORSDOF 6
ENDMDL
