MODEL 1
REMARK VINA RESULT:      -6.4      0.000      0.000
REMARK  14 active torsions:
REMARK  status: ('A' for Active; 'I' for Inactive)
REMARK    1  A    between atoms: P_1  and  O_7 
REMARK    2  A    between atoms: P_1  and  O_8 
REMARK    3  A    between atoms: P_1  and  O_9 
REMARK    4  A    between atoms: P_2  and  O_8 
REMARK    5  A    between atoms: P_2  and  O_11 
REMARK    6  A    between atoms: P_2  and  N_24 
REMARK    7  A    between atoms: P_3  and  O_13 
REMARK    8  A    between atoms: P_3  and  O_14 
REMARK    9  A    between atoms: P_3  and  N_24 
REMARK   10  A    between atoms: O_5  and  C_25 
REMARK   11  A    between atoms: O_6  and  C_26 
REMARK   12  A    between atoms: O_7  and  C_29 
REMARK   13  A    between atoms: N_16  and  C_27 
REMARK   14  A    between atoms: C_28  and  C_29 
ROOT
HETATM    1  O   UNN     0       0.075  -0.519  10.718  0.00  0.00    -0.353 OA
HETATM    2  C   UNN     0      -0.732   1.695  10.722  0.00  0.00     0.198 C 
HETATM    3  C   UNN     0      -0.134   1.345  12.067  0.00  0.00     0.182 C 
HETATM    4  C   UNN     0      -0.475   0.462   9.857  0.00  0.00     0.262 C 
HETATM    5  C   UNN     0      -0.213  -0.168  12.040  0.00  0.00     0.180 C 
ENDROOT
BRANCH   5   6
HETATM    6  C   UNN     0      -1.579  -0.719  12.439  0.00  0.00     0.215 C 
BRANCH   6   7
HETATM    7  O   UNN     0      -1.871  -0.333  13.759  0.00  0.00    -0.294 OA
BRANCH   7   8
HETATM    8  P   UNN     0      -1.475  -1.319  14.960  0.00  0.00     0.401 P 
HETATM    9  O   UNN     0      -0.951  -2.639  14.519  0.00  0.00    -0.631 OA
BRANCH   8  10
HETATM   10  O   UNN     0      -0.750  -0.677  16.244  0.00  0.00    -0.205 OA
BRANCH  10  11
HETATM   11  P   UNN     0      -1.664   0.255  17.162  0.00  0.00     0.339 P 
HETATM   12  O   UNN     0      -2.491  -0.376  18.224  0.00  0.00    -0.641 OA
BRANCH  11  13
HETATM   13  O   UNN     0      -2.592   1.271  16.300  0.00  0.00    -0.316 OA
HETATM   14  H   UNN     0      -3.425   1.371  16.727  0.00  0.00     0.221 HD
ENDBRANCH  11  13
BRANCH  11  15
HETATM   15  N   UNN     0      -0.797   1.589  17.945  0.00  0.00    -0.136 NA
HETATM   16  H   UNN     0      -0.033   1.204  18.501  0.00  0.00     0.145 HD
BRANCH  15  17
HETATM   17  P   UNN     0      -0.118   2.704  16.755  0.00  0.00     0.328 P 
HETATM   18  O   UNN     0       0.987   3.570  17.237  0.00  0.00    -0.641 OA
BRANCH  17  19
HETATM   19  O   UNN     0       0.429   2.013  15.391  0.00  0.00    -0.317 OA
HETATM   20  H   UNN     0      -0.103   1.251  15.214  0.00  0.00     0.221 HD
ENDBRANCH  17  19
BRANCH  17  21
HETATM   21  O   UNN     0      -1.188   3.686  16.030  0.00  0.00    -0.317 OA
HETATM   22  H   UNN     0      -0.716   4.310  15.502  0.00  0.00     0.221 HD
ENDBRANCH  17  21
ENDBRANCH  15  17
ENDBRANCH  11  15
ENDBRANCH  10  11
ENDBRANCH   8  10
BRANCH   8  23
HETATM   23  O   UNN     0      -2.838  -1.852  15.685  0.00  0.00    -0.307 OA
HETATM   24  H   UNN     0      -3.518  -1.224  15.513  0.00  0.00     0.222 HD
ENDBRANCH   8  23
ENDBRANCH   7   8
ENDBRANCH   6   7
ENDBRANCH   5   6
BRANCH   3  25
HETATM   25  O   UNN     0       1.213   1.748  12.079  0.00  0.00    -0.390 OA
HETATM   26  H   UNN     0       1.779   1.052  11.740  0.00  0.00     0.210 HD
ENDBRANCH   3  25
BRANCH   4  27
HETATM   27  N   UNN     0      -1.650   0.000   9.092  0.00  0.00    -0.297 N 
HETATM   28  C   UNN     0      -1.606  -0.937   8.244  0.00  0.00     0.142 A 
HETATM   29  N   UNN     0      -0.727  -1.715   7.781  0.00  0.00    -0.336 N 
HETATM   30  C   UNN     0      -2.879  -0.994   7.808  0.00  0.00     0.122 A 
HETATM   31  C   UNN     0      -1.124  -2.519   6.885  0.00  0.00     0.183 A 
HETATM   32  HN  UNN     0       0.239  -1.699   8.107  1.00  0.00     0.168 HD
HETATM   33  N   UNN     0      -2.293  -2.633   6.406  0.00  0.00    -0.337 N 
HETATM   34  C   UNN     0      -3.208  -1.879   6.854  0.00  0.00     0.131 A 
HETATM   35  HN  UNN     0      -2.492  -3.316   5.675  1.00  0.00     0.168 HD
HETATM   36  N   UNN     0      -4.404  -1.911   6.438  0.00  0.00    -0.383 N 
HETATM   37  H   UNN     0      -5.123  -1.259   6.837  0.00  0.00     0.157 HD
HETATM   38  H   UNN     0      -4.688  -2.590   5.689  0.00  0.00     0.157 HD
HETATM   39  N   UNN     0      -3.597  -0.137   8.407  0.00  0.00    -0.346 N 
HETATM   40  C   UNN     0      -2.821   0.469   9.201  0.00  0.00     0.188 A 
HETATM   41  HN  UNN     0      -4.595   0.029   8.275  1.00  0.00     0.167 HD
ENDBRANCH   4  27
BRANCH   2  42
HETATM   42  O   UNN     0      -0.100   2.842  10.207  0.00  0.00    -0.388 OA
HETATM   43  H   UNN     0       0.521   3.171  10.864  0.00  0.00     0.210 HD
ENDBRANCH   2  42
TORSDOF 14
ENDMDL
MODEL 2
REMARK VINA RESULT:      -6.4     18.975     20.489
REMARK  14 active torsions:
REMARK  status: ('A' for Active; 'I' for Inactive)
REMARK    1  A    between atoms: P_1  and  O_7 
REMARK    2  A    between atoms: P_1  and  O_8 
REMARK    3  A    between atoms: P_1  and  O_9 
REMARK    4  A    between atoms: P_2  and  O_8 
REMARK    5  A    between atoms: P_2  and  O_11 
REMARK    6  A    between atoms: P_2  and  N_24 
REMARK    7  A    between atoms: P_3  and  O_13 
REMARK    8  A    between atoms: P_3  and  O_14 
REMARK    9  A    between atoms: P_3  and  N_24 
REMARK   10  A    between atoms: O_5  and  C_25 
REMARK   11  A    between atoms: O_6  and  C_26 
REMARK   12  A    between atoms: O_7  and  C_29 
REMARK   13  A    between atoms: N_16  and  C_27 
REMARK   14  A    between atoms: C_28  and  C_29 
ROOT
HETATM    1  O   UNN     0     -21.341  -1.800  11.875  0.00  0.00    -0.353 OA
HETATM    2  C   UNN     0     -19.986  -0.244  13.014  0.00  0.00     0.198 C 
HETATM    3  C   UNN     0     -21.051  -0.795  13.936  0.00  0.00     0.182 C 
HETATM    4  C   UNN     0     -20.173  -1.016  11.708  0.00  0.00     0.262 C 
HETATM    5  C   UNN     0     -22.084  -1.277  12.938  0.00  0.00     0.180 C 
ENDROOT
BRANCH   5   6
HETATM    6  C   UNN     0     -23.010  -0.174  12.432  0.00  0.00     0.215 C 
BRANCH   6   7
HETATM    7  O   UNN     0     -23.340   0.683  13.496  0.00  0.00    -0.294 OA
BRANCH   7   8
HETATM    8  P   UNN     0     -22.894   2.222  13.418  0.00  0.00     0.401 P 
HETATM    9  O   UNN     0     -22.256   2.608  12.132  0.00  0.00    -0.631 OA
BRANCH   8  10
HETATM   10  O   UNN     0     -23.880   3.317  14.063  0.00  0.00    -0.205 OA
BRANCH  10  11
HETATM   11  P   UNN     0     -23.507   4.841  13.771  0.00  0.00     0.339 P 
HETATM   12  O   UNN     0     -24.033   5.895  14.679  0.00  0.00    -0.641 OA
BRANCH  11  13
HETATM   13  O   UNN     0     -23.793   5.275  12.233  0.00  0.00    -0.316 OA
HETATM   14  H   UNN     0     -24.534   5.855  12.205  0.00  0.00     0.221 HD
ENDBRANCH  11  13
BRANCH  11  15
HETATM   15  N   UNN     0     -21.768   5.153  13.616  0.00  0.00    -0.136 NA
HETATM   16  H   UNN     0     -21.606   5.698  12.769  0.00  0.00     0.145 HD
BRANCH  15  17
HETATM   17  P   UNN     0     -21.150   6.067  14.996  0.00  0.00     0.328 P 
HETATM   18  O   UNN     0     -19.695   5.939  15.258  0.00  0.00    -0.641 OA
BRANCH  17  19
HETATM   19  O   UNN     0     -21.453   7.662  14.963  0.00  0.00    -0.317 OA
HETATM   20  H   UNN     0     -22.365   7.784  14.747  0.00  0.00     0.221 HD
ENDBRANCH  17  19
BRANCH  17  21
HETATM   21  O   UNN     0     -21.898   5.783  16.409  0.00  0.00    -0.317 OA
HETATM   22  H   UNN     0     -21.247   5.558  17.055  0.00  0.00     0.221 HD
ENDBRANCH  17  21
ENDBRANCH  15  17
ENDBRANCH  11  15
ENDBRANCH  10  11
ENDBRANCH   8  10
BRANCH   8  23
HETATM   23  O   UNN     0     -21.599   2.452  14.387  0.00  0.00    -0.307 OA
HETATM   24  H   UNN     0     -20.826   2.367  13.855  0.00  0.00     0.222 HD
ENDBRANCH   8  23
ENDBRANCH   7   8
ENDBRANCH   6   7
ENDBRANCH   5   6
BRANCH   3  25
HETATM   25  O   UNN     0     -20.518  -1.895  14.633  0.00  0.00    -0.390 OA
HETATM   26  H   UNN     0     -19.658  -1.681  14.997  0.00  0.00     0.210 HD
ENDBRANCH   3  25
BRANCH   4  27
HETATM   27  N   UNN     0     -20.185  -0.170  10.498  0.00  0.00    -0.297 N 
HETATM   28  C   UNN     0     -20.640  -0.555   9.383  0.00  0.00     0.142 A 
HETATM   29  N   UNN     0     -21.166  -1.604   8.919  0.00  0.00    -0.336 N 
HETATM   30  C   UNN     0     -20.434   0.520   8.599  0.00  0.00     0.122 A 
HETATM   31  C   UNN     0     -21.459  -1.572   7.687  0.00  0.00     0.183 A 
HETATM   32  HN  UNN     0     -21.344  -2.425   9.498  1.00  0.00     0.168 HD
HETATM   33  N   UNN     0     -21.290  -0.613   6.873  0.00  0.00    -0.337 N 
HETATM   34  C   UNN     0     -20.777   0.464   7.302  0.00  0.00     0.131 A 
HETATM   35  HN  UNN     0     -21.560  -0.708   5.894  1.00  0.00     0.168 HD
HETATM   36  N   UNN     0     -20.562   1.474   6.569  0.00  0.00    -0.383 N 
HETATM   37  H   UNN     0     -20.128   2.339   6.973  0.00  0.00     0.157 HD
HETATM   38  H   UNN     0     -20.817   1.455   5.551  0.00  0.00     0.157 HD
HETATM   39  N   UNN     0     -19.907   1.464   9.261  0.00  0.00    -0.346 N 
HETATM   40  C   UNN     0     -19.761   1.021  10.437  0.00  0.00     0.188 A 
HETATM   41  HN  UNN     0     -19.652   2.390   8.916  1.00  0.00     0.167 HD
ENDBRANCH   4  27
BRANCH   2  42
HETATM   42  O   UNN     0     -18.714  -0.460  13.577  0.00  0.00    -0.388 OA
HETATM   43  H   UNN     0     -18.645  -1.385  13.834  0.00  0.00     0.210 HD
ENDBRANCH   2  42
TORSDOF 14
ENDMDL
MODEL 3
REMARK VINA RESULT:      -6.1     19.100     21.475
REMARK  14 active torsions:
REMARK  status: ('A' for Active; 'I' for Inactive)
REMARK    1  A    between atoms: P_1  and  O_7 
REMARK    2  A    between atoms: P_1  and  O_8 
REMARK    3  A    between atoms: P_1  and  O_9 
REMARK    4  A    between atoms: P_2  and  O_8 
REMARK    5  A    between atoms: P_2  and  O_11 
REMARK    6  A    between atoms: P_2  and  N_24 
REMARK    7  A    between atoms: P_3  and  O_13 
REMARK    8  A    between atoms: P_3  and  O_14 
REMARK    9  A    between atoms: P_3  and  N_24 
REMARK   10  A    between atoms: O_5  and  C_25 
REMARK   11  A    between atoms: O_6  and  C_26 
REMARK   12  A    between atoms: O_7  and  C_29 
REMARK   13  A    between atoms: N_16  and  C_27 
REMARK   14  A    between atoms: C_28  and  C_29 
ROOT
HETATM    1  O   UNN     0     -16.666  12.318  18.919  0.00  0.00    -0.353 OA
HETATM    2  C   UNN     0     -14.666  13.520  19.242  0.00  0.00     0.198 C 
HETATM    3  C   UNN     0     -14.678  12.866  17.878  0.00  0.00     0.182 C 
HETATM    4  C   UNN     0     -16.038  13.201  19.832  0.00  0.00     0.262 C 
HETATM    5  C   UNN     0     -15.688  11.757  18.092  0.00  0.00     0.180 C 
ENDROOT
BRANCH   5   6
HETATM    6  C   UNN     0     -15.102  10.511  18.749  0.00  0.00     0.215 C 
BRANCH   6   7
HETATM    7  O   UNN     0     -16.087   9.509  18.809  0.00  0.00    -0.294 OA
BRANCH   7   8
HETATM    8  P   UNN     0     -15.631   7.972  18.755  0.00  0.00     0.401 P 
HETATM    9  O   UNN     0     -15.369   7.366  20.087  0.00  0.00    -0.631 OA
BRANCH   8  10
HETATM   10  O   UNN     0     -16.360   7.015  17.686  0.00  0.00    -0.205 OA
BRANCH  10  11
HETATM   11  P   UNN     0     -17.744   7.555  17.104  0.00  0.00     0.339 P 
HETATM   12  O   UNN     0     -17.765   8.151  15.742  0.00  0.00    -0.641 OA
BRANCH  11  13
HETATM   13  O   UNN     0     -18.512   8.551  18.130  0.00  0.00    -0.316 OA
HETATM   14  H   UNN     0     -19.213   8.986  17.676  0.00  0.00     0.221 HD
ENDBRANCH  11  13
BRANCH  11  15
HETATM   15  N   UNN     0     -19.065   6.373  17.141  0.00  0.00    -0.136 NA
HETATM   16  H   UNN     0     -19.452   6.342  18.084  0.00  0.00     0.145 HD
BRANCH  15  17
HETATM   17  P   UNN     0     -20.356   6.812  16.019  0.00  0.00     0.328 P 
HETATM   18  O   UNN     0     -21.641   6.090  16.195  0.00  0.00    -0.641 OA
BRANCH  17  19
HETATM   19  O   UNN     0     -20.740   8.390  15.988  0.00  0.00    -0.317 OA
HETATM   20  H   UNN     0     -19.951   8.881  15.813  0.00  0.00     0.221 HD
ENDBRANCH  17  19
BRANCH  17  21
HETATM   21  O   UNN     0     -19.979   6.699  14.444  0.00  0.00    -0.317 OA
HETATM   22  H   UNN     0     -19.651   5.830  14.273  0.00  0.00     0.221 HD
ENDBRANCH  17  21
ENDBRANCH  15  17
ENDBRANCH  11  15
ENDBRANCH  10  11
ENDBRANCH   8  10
BRANCH   8  23
HETATM   23  O   UNN     0     -14.109   7.886  18.168  0.00  0.00    -0.307 OA
HETATM   24  H   UNN     0     -14.037   8.511  17.467  0.00  0.00     0.222 HD
ENDBRANCH   8  23
ENDBRANCH   7   8
ENDBRANCH   6   7
ENDBRANCH   5   6
BRANCH   3  25
HETATM   25  O   UNN     0     -15.178  13.788  16.941  0.00  0.00    -0.390 OA
HETATM   26  H   UNN     0     -15.616  14.517  17.383  0.00  0.00     0.210 HD
ENDBRANCH   3  25
BRANCH   4  27
HETATM   27  N   UNN     0     -16.002  12.702  21.221  0.00  0.00    -0.297 N 
HETATM   28  C   UNN     0     -17.038  12.400  21.881  0.00  0.00     0.142 A 
HETATM   29  N   UNN     0     -18.284  12.396  21.682  0.00  0.00    -0.336 N 
HETATM   30  C   UNN     0     -16.525  12.017  23.065  0.00  0.00     0.122 A 
HETATM   31  C   UNN     0     -18.994  12.031  22.666  0.00  0.00     0.183 A 
HETATM   32  HN  UNN     0     -18.693  12.669  20.788  1.00  0.00     0.168 HD
HETATM   33  N   UNN     0     -18.602  11.669  23.816  0.00  0.00    -0.337 N 
HETATM   34  C   UNN     0     -17.356  11.645  24.052  0.00  0.00     0.131 A 
HETATM   35  HN  UNN     0     -19.273  11.402  24.536  1.00  0.00     0.168 HD
HETATM   36  N   UNN     0     -16.865  11.304  25.169  0.00  0.00    -0.383 N 
HETATM   37  H   UNN     0     -15.826  11.309  25.315  0.00  0.00     0.157 HD
HETATM   38  H   UNN     0     -17.492  11.013  25.959  0.00  0.00     0.157 HD
HETATM   39  N   UNN     0     -15.259  12.086  23.051  0.00  0.00    -0.346 N 
HETATM   40  C   UNN     0     -14.951  12.510  21.900  0.00  0.00     0.188 A 
HETATM   41  HN  UNN     0     -14.621  11.848  23.811  1.00  0.00     0.167 HD
ENDBRANCH   4  27
BRANCH   2  42
HETATM   42  O   UNN     0     -14.462  14.906  19.101  0.00  0.00    -0.388 OA
HETATM   43  H   UNN     0     -14.567  15.139  18.174  0.00  0.00     0.210 HD
ENDBRANCH   2  42
TORSDOF 14
ENDMDL
MODEL 4
REMARK VINA RESULT:      -6.1      3.064      5.259
REMARK  14 active torsions:
REMARK  status: ('A' for Active; 'I' for Inactive)
REMARK    1  A    between atoms: P_1  and  O_7 
REMARK    2  A    between atoms: P_1  and  O_8 
REMARK    3  A    between atoms: P_1  and  O_9 
REMARK    4  A    between atoms: P_2  and  O_8 
REMARK    5  A    between atoms: P_2  and  O_11 
REMARK    6  A    between atoms: P_2  and  N_24 
REMARK    7  A    between atoms: P_3  and  O_13 
REMARK    8  A    between atoms: P_3  and  O_14 
REMARK    9  A    between atoms: P_3  and  N_24 
REMARK   10  A    between atoms: O_5  and  C_25 
REMARK   11  A    between atoms: O_6  and  C_26 
REMARK   12  A    between atoms: O_7  and  C_29 
REMARK   13  A    between atoms: N_16  and  C_27 
REMARK   14  A    between atoms: C_28  and  C_29 
ROOT
HETATM    1  O   UNN     0      -1.061   1.854  11.443  0.00  0.00    -0.353 OA
HETATM    2  C   UNN     0      -1.594  -0.167  10.354  0.00  0.00     0.198 C 
HETATM    3  C   UNN     0      -1.271  -0.418  11.810  0.00  0.00     0.182 C 
HETATM    4  C   UNN     0      -1.531   1.353  10.204  0.00  0.00     0.262 C 
HETATM    5  C   UNN     0      -0.451   0.810  12.147  0.00  0.00     0.180 C 
ENDROOT
BRANCH   5   6
HETATM    6  C   UNN     0       1.016   0.699  11.744  0.00  0.00     0.215 C 
BRANCH   6   7
HETATM    7  O   UNN     0       1.812   1.368  12.689  0.00  0.00    -0.294 OA
BRANCH   7   8
HETATM    8  P   UNN     0       2.510   2.751  12.274  0.00  0.00     0.401 P 
HETATM    9  O   UNN     0       2.312   3.132  10.851  0.00  0.00    -0.631 OA
BRANCH   8  10
HETATM   10  O   UNN     0       2.456   3.961  13.332  0.00  0.00    -0.205 OA
BRANCH  10  11
HETATM   11  P   UNN     0       1.049   4.703  13.465  0.00  0.00     0.339 P 
HETATM   12  O   UNN     0       0.546   5.498  12.314  0.00  0.00    -0.641 OA
BRANCH  11  13
HETATM   13  O   UNN     0       0.934   5.596  14.816  0.00  0.00    -0.316 OA
HETATM   14  H   UNN     0       1.785   5.926  15.046  0.00  0.00     0.221 HD
ENDBRANCH  11  13
BRANCH  11  15
HETATM   15  N   UNN     0      -0.291   3.650  13.955  0.00  0.00    -0.136 NA
HETATM   16  H   UNN     0      -0.179   2.743  13.501  0.00  0.00     0.145 HD
BRANCH  15  17
HETATM   17  P   UNN     0      -0.313   3.403  15.703  0.00  0.00     0.328 P 
HETATM   18  O   UNN     0       0.999   3.110  16.333  0.00  0.00    -0.641 OA
BRANCH  17  19
HETATM   19  O   UNN     0      -0.951   4.622  16.567  0.00  0.00    -0.317 OA
HETATM   20  H   UNN     0      -0.567   5.430  16.264  0.00  0.00     0.221 HD
ENDBRANCH  17  19
BRANCH  17  21
HETATM   21  O   UNN     0      -1.341   2.265  16.233  0.00  0.00    -0.317 OA
HETATM   22  H   UNN     0      -0.859   1.638  16.750  0.00  0.00     0.221 HD
ENDBRANCH  17  21
ENDBRANCH  15  17
ENDBRANCH  11  15
ENDBRANCH  10  11
ENDBRANCH   8  10
BRANCH   8  23
HETATM   23  O   UNN     0       4.130   2.538  12.223  0.00  0.00    -0.307 OA
HETATM   24  H   UNN     0       4.339   1.809  12.780  0.00  0.00     0.222 HD
ENDBRANCH   8  23
ENDBRANCH   7   8
ENDBRANCH   6   7
ENDBRANCH   5   6
BRANCH   3  25
HETATM   25  O   UNN     0      -2.471  -0.402  12.545  0.00  0.00    -0.390 OA
HETATM   26  H   UNN     0      -2.377  -0.897  13.360  0.00  0.00     0.210 HD
ENDBRANCH   3  25
BRANCH   4  27
HETATM   27  N   UNN     0      -0.756   1.817   9.036  0.00  0.00    -0.297 N 
HETATM   28  C   UNN     0      -0.388   3.017   8.876  0.00  0.00     0.142 A 
HETATM   29  N   UNN     0      -0.501   4.104   9.507  0.00  0.00    -0.336 N 
HETATM   30  C   UNN     0       0.260   2.966   7.697  0.00  0.00     0.122 A 
HETATM   31  C   UNN     0       0.015   5.117   8.949  0.00  0.00     0.183 A 
HETATM   32  HN  UNN     0      -0.975   4.162  10.409  1.00  0.00     0.168 HD
HETATM   33  N   UNN     0       0.629   5.166   7.840  0.00  0.00    -0.337 N 
HETATM   34  C   UNN     0       0.776   4.093   7.181  0.00  0.00     0.131 A 
HETATM   35  HN  UNN     0       0.996   6.049   7.486  1.00  0.00     0.168 HD
HETATM   36  N   UNN     0       1.368   4.038   6.063  0.00  0.00    -0.383 N 
HETATM   37  H   UNN     0       1.456   3.125   5.553  0.00  0.00     0.157 HD
HETATM   38  H   UNN     0       1.776   4.905   5.634  0.00  0.00     0.157 HD
HETATM   39  N   UNN     0       0.266   1.784   7.238  0.00  0.00    -0.346 N 
HETATM   40  C   UNN     0      -0.365   1.084   8.082  0.00  0.00     0.188 A 
HETATM   41  HN  UNN     0       0.693   1.463   6.368  1.00  0.00     0.167 HD
ENDBRANCH   4  27
BRANCH   2  42
HETATM   42  O   UNN     0      -2.872  -0.673  10.057  0.00  0.00    -0.388 OA
HETATM   43  H   UNN     0      -3.365  -0.001   9.576  0.00  0.00     0.210 HD
ENDBRANCH   2  42
TORSDOF 14
ENDMDL
MODEL 5
REMARK VINA RESULT:      -6.1     19.059     20.857
REMARK  14 active torsions:
REMARK  status: ('A' for Active; 'I' for Inactive)
REMARK    1  A    between atoms: P_1  and  O_7 
REMARK    2  A    between atoms: P_1  and  O_8 
REMARK    3  A    between atoms: P_1  and  O_9 
REMARK    4  A    between atoms: P_2  and  O_8 
REMARK    5  A    between atoms: P_2  and  O_11 
REMARK    6  A    between atoms: P_2  and  N_24 
REMARK    7  A    between atoms: P_3  and  O_13 
REMARK    8  A    between atoms: P_3  and  O_14 
REMARK    9  A    between atoms: P_3  and  N_24 
REMARK   10  A    between atoms: O_5  and  C_25 
REMARK   11  A    between atoms: O_6  and  C_26 
REMARK   12  A    between atoms: O_7  and  C_29 
REMARK   13  A    between atoms: N_16  and  C_27 
REMARK   14  A    between atoms: C_28  and  C_29 
ROOT
HETATM    1  O   UNN     0     -21.229   2.404  13.552  0.00  0.00    -0.353 OA
HETATM    2  C   UNN     0     -23.027   3.923  13.447  0.00  0.00     0.198 C 
HETATM    3  C   UNN     0     -22.989   3.238  14.796  0.00  0.00     0.182 C 
HETATM    4  C   UNN     0     -21.791   3.401  12.717  0.00  0.00     0.262 C 
HETATM    5  C   UNN     0     -22.200   1.987  14.468  0.00  0.00     0.180 C 
ENDROOT
BRANCH   5   6
HETATM    6  C   UNN     0     -23.043   0.870  13.860  0.00  0.00     0.215 C 
BRANCH   6   7
HETATM    7  O   UNN     0     -22.668  -0.360  14.428  0.00  0.00    -0.294 OA
BRANCH   7   8
HETATM    8  P   UNN     0     -21.881  -1.423  13.521  0.00  0.00     0.401 P 
HETATM    9  O   UNN     0     -20.867  -2.223  14.258  0.00  0.00    -0.631 OA
BRANCH   8  10
HETATM   10  O   UNN     0     -22.723  -2.223  12.408  0.00  0.00    -0.205 OA
BRANCH  10  11
HETATM   11  P   UNN     0     -21.861  -3.021  11.328  0.00  0.00     0.339 P 
HETATM   12  O   UNN     0     -22.460  -4.214  10.672  0.00  0.00    -0.641 OA
BRANCH  11  13
HETATM   13  O   UNN     0     -20.376  -3.401  11.864  0.00  0.00    -0.316 OA
HETATM   14  H   UNN     0     -20.450  -3.901  12.658  0.00  0.00     0.221 HD
ENDBRANCH  11  13
BRANCH  11  15
HETATM   15  N   UNN     0     -21.213  -2.016  10.018  0.00  0.00    -0.136 NA
HETATM   16  H   UNN     0     -21.118  -1.057  10.356  0.00  0.00     0.145 HD
BRANCH  15  17
HETATM   17  P   UNN     0     -19.627  -2.585   9.491  0.00  0.00     0.328 P 
HETATM   18  O   UNN     0     -19.516  -4.041   9.227  0.00  0.00    -0.641 OA
BRANCH  17  19
HETATM   19  O   UNN     0     -19.033  -1.853   8.168  0.00  0.00    -0.317 OA
HETATM   20  H   UNN     0     -18.136  -2.128   8.058  0.00  0.00     0.221 HD
ENDBRANCH  17  19
BRANCH  17  21
HETATM   21  O   UNN     0     -18.389  -2.199  10.467  0.00  0.00    -0.317 OA
HETATM   22  H   UNN     0     -18.682  -2.254  11.363  0.00  0.00     0.221 HD
ENDBRANCH  17  21
ENDBRANCH  15  17
ENDBRANCH  11  15
ENDBRANCH  10  11
ENDBRANCH   8  10
BRANCH   8  23
HETATM   23  O   UNN     0     -20.855  -0.624  12.530  0.00  0.00    -0.307 OA
HETATM   24  H   UNN     0     -20.917  -1.019  11.677  0.00  0.00     0.222 HD
ENDBRANCH   8  23
ENDBRANCH   7   8
ENDBRANCH   6   7
ENDBRANCH   5   6
BRANCH   3  25
HETATM   25  O   UNN     0     -22.254   4.041  15.687  0.00  0.00    -0.390 OA
HETATM   26  H   UNN     0     -22.755   4.208  16.486  0.00  0.00     0.210 HD
ENDBRANCH   3  25
BRANCH   4  27
HETATM   27  N   UNN     0     -22.046   2.954  11.333  0.00  0.00    -0.297 N 
HETATM   28  C   UNN     0     -21.226   2.262  10.662  0.00  0.00     0.142 A 
HETATM   29  N   UNN     0     -20.081   1.764  10.844  0.00  0.00    -0.336 N 
HETATM   30  C   UNN     0     -21.868   2.110   9.489  0.00  0.00     0.122 A 
HETATM   31  C   UNN     0     -19.591   1.143   9.854  0.00  0.00     0.183 A 
HETATM   32  HN  UNN     0     -19.583   1.855  11.730  1.00  0.00     0.168 HD
HETATM   33  N   UNN     0     -20.114   0.963   8.713  0.00  0.00    -0.337 N 
HETATM   34  C   UNN     0     -21.270   1.435   8.494  0.00  0.00     0.131 A 
HETATM   35  HN  UNN     0     -19.615   0.449   7.986  1.00  0.00     0.168 HD
HETATM   36  N   UNN     0     -21.875   1.314   7.388  0.00  0.00    -0.383 N 
HETATM   37  H   UNN     0     -22.828   1.731   7.256  0.00  0.00     0.157 HD
HETATM   38  H   UNN     0     -21.428   0.795   6.592  0.00  0.00     0.157 HD
HETATM   39  N   UNN     0     -23.002   2.677   9.520  0.00  0.00    -0.346 N 
HETATM   40  C   UNN     0     -23.098   3.193  10.671  0.00  0.00     0.188 A 
HETATM   41  HN  UNN     0     -23.695   2.710   8.771  1.00  0.00     0.167 HD
ENDBRANCH   4  27
BRANCH   2  42
HETATM   42  O   UNN     0     -22.987   5.319  13.623  0.00  0.00    -0.388 OA
HETATM   43  H   UNN     0     -23.004   5.738  12.758  0.00  0.00     0.210 HD
ENDBRANCH   2  42
TORSDOF 14
ENDMDL
MODEL 6
REMARK VINA RESULT:      -6.1     18.785     20.170
REMARK  14 active torsions:
REMARK  status: ('A' for Active; 'I' for Inactive)
REMARK    1  A    between atoms: P_1  and  O_7 
REMARK    2  A    between atoms: P_1  and  O_8 
REMARK    3  A    between atoms: P_1  and  O_9 
REMARK    4  A    between atoms: P_2  and  O_8 
REMARK    5  A    between atoms: P_2  and  O_11 
REMARK    6  A    between atoms: P_2  and  N_24 
REMARK    7  A    between atoms: P_3  and  O_13 
REMARK    8  A    between atoms: P_3  and  O_14 
REMARK    9  A    between atoms: P_3  and  N_24 
REMARK   10  A    between atoms: O_5  and  C_25 
REMARK   11  A    between atoms: O_6  and  C_26 
REMARK   12  A    between atoms: O_7  and  C_29 
REMARK   13  A    between atoms: N_16  and  C_27 
REMARK   14  A    between atoms: C_28  and  C_29 
ROOT
HETATM    1  O   UNN     0     -19.601   0.011   9.266  0.00  0.00    -0.353 OA
HETATM    2  C   UNN     0     -21.773   0.534   8.514  0.00  0.00     0.198 C 
HETATM    3  C   UNN     0     -21.140   1.732   9.187  0.00  0.00     0.182 C 
HETATM    4  C   UNN     0     -20.675  -0.529   8.515  0.00  0.00     0.262 C 
HETATM    5  C   UNN     0     -20.085   1.066  10.046  0.00  0.00     0.180 C 
ENDROOT
BRANCH   5   6
HETATM    6  C   UNN     0     -20.619   0.531  11.371  0.00  0.00     0.215 C 
BRANCH   6   7
HETATM    7  O   UNN     0     -20.342   1.456  12.393  0.00  0.00    -0.294 OA
BRANCH   7   8
HETATM    8  P   UNN     0     -21.531   2.382  12.943  0.00  0.00     0.401 P 
HETATM    9  O   UNN     0     -22.893   1.846  12.683  0.00  0.00    -0.631 OA
BRANCH   8  10
HETATM   10  O   UNN     0     -21.324   3.093  14.371  0.00  0.00    -0.205 OA
BRANCH  10  11
HETATM   11  P   UNN     0     -22.593   3.865  14.951  0.00  0.00     0.339 P 
HETATM   12  O   UNN     0     -23.624   3.093  15.694  0.00  0.00    -0.641 OA
BRANCH  11  13
HETATM   13  O   UNN     0     -23.326   4.795  13.840  0.00  0.00    -0.316 OA
HETATM   14  H   UNN     0     -23.020   5.681  13.924  0.00  0.00     0.221 HD
ENDBRANCH  11  13
BRANCH  11  15
HETATM   15  N   UNN     0     -22.199   5.262  15.971  0.00  0.00    -0.136 NA
HETATM   16  H   UNN     0     -21.938   4.928  16.899  0.00  0.00     0.145 HD
BRANCH  15  17
HETATM   17  P   UNN     0     -20.847   6.185  15.307  0.00  0.00     0.328 P 
HETATM   18  O   UNN     0     -19.536   5.982  15.972  0.00  0.00    -0.641 OA
BRANCH  17  19
HETATM   19  O   UNN     0     -20.573   5.968  13.720  0.00  0.00    -0.317 OA
HETATM   20  H   UNN     0     -21.062   6.624  13.246  0.00  0.00     0.221 HD
ENDBRANCH  17  19
BRANCH  17  21
HETATM   21  O   UNN     0     -21.076   7.790  15.220  0.00  0.00    -0.317 OA
HETATM   22  H   UNN     0     -20.242   8.220  15.326  0.00  0.00     0.221 HD
ENDBRANCH  17  21
ENDBRANCH  15  17
ENDBRANCH  11  15
ENDBRANCH  10  11
ENDBRANCH   8  10
BRANCH   8  23
HETATM   23  O   UNN     0     -21.638   3.721  12.012  0.00  0.00    -0.307 OA
HETATM   24  H   UNN     0     -20.813   3.829  11.572  0.00  0.00     0.222 HD
ENDBRANCH   8  23
ENDBRANCH   7   8
ENDBRANCH   6   7
ENDBRANCH   5   6
BRANCH   3  25
HETATM   25  O   UNN     0     -20.519   2.524   8.204  0.00  0.00    -0.390 OA
HETATM   26  H   UNN     0     -20.486   3.442   8.478  0.00  0.00     0.210 HD
ENDBRANCH   3  25
BRANCH   4  27
HETATM   27  N   UNN     0     -21.119  -1.861   8.973  0.00  0.00    -0.297 N 
HETATM   28  C   UNN     0     -20.330  -2.743   9.420  0.00  0.00     0.142 A 
HETATM   29  N   UNN     0     -19.089  -2.847   9.622  0.00  0.00    -0.336 N 
HETATM   30  C   UNN     0     -21.163  -3.764   9.693  0.00  0.00     0.122 A 
HETATM   31  C   UNN     0     -18.699  -3.965  10.073  0.00  0.00     0.183 A 
HETATM   32  HN  UNN     0     -18.441  -2.081   9.435  1.00  0.00     0.168 HD
HETATM   33  N   UNN     0     -19.406  -4.983  10.345  0.00  0.00    -0.337 N 
HETATM   34  C   UNN     0     -20.659  -4.915  10.170  0.00  0.00     0.131 A 
HETATM   35  HN  UNN     0     -18.975  -5.837  10.698  1.00  0.00     0.168 HD
HETATM   36  N   UNN     0     -21.449  -5.876  10.406  0.00  0.00    -0.383 N 
HETATM   37  H   UNN     0     -22.479  -5.770  10.236  0.00  0.00     0.157 HD
HETATM   38  H   UNN     0     -21.082  -6.788  10.775  0.00  0.00     0.157 HD
HETATM   39  N   UNN     0     -22.362  -3.450   9.428  0.00  0.00    -0.346 N 
HETATM   40  C   UNN     0     -22.318  -2.266   8.985  0.00  0.00     0.188 A 
HETATM   41  HN  UNN     0     -23.192  -4.032   9.547  1.00  0.00     0.167 HD
ENDBRANCH   4  27
BRANCH   2  42
HETATM   42  O   UNN     0     -22.172   0.879   7.210  0.00  0.00    -0.388 OA
HETATM   43  H   UNN     0     -22.662   0.141   6.834  0.00  0.00     0.210 HD
ENDBRANCH   2  42
TORSDOF 14
ENDMDL
MODEL 7
REMARK VINA RESULT:      -6.1     19.648     20.997
REMARK  14 active torsions:
REMARK  status: ('A' for Active; 'I' for Inactive)
REMARK    1  A    between atoms: P_1  and  O_7 
REMARK    2  A    between atoms: P_1  and  O_8 
REMARK    3  A    between atoms: P_1  and  O_9 
REMARK    4  A    between atoms: P_2  and  O_8 
REMARK    5  A    between atoms: P_2  and  O_11 
REMARK    6  A    between atoms: P_2  and  N_24 
REMARK    7  A    between atoms: P_3  and  O_13 
REMARK    8  A    between atoms: P_3  and  O_14 
REMARK    9  A    between atoms: P_3  and  N_24 
REMARK   10  A    between atoms: O_5  and  C_25 
REMARK   11  A    between atoms: O_6  and  C_26 
REMARK   12  A    between atoms: O_7  and  C_29 
REMARK   13  A    between atoms: N_16  and  C_27 
REMARK   14  A    between atoms: C_28  and  C_29 
ROOT
HETATM    1  O   UNN     0     -20.709   2.339   9.372  0.00  0.00    -0.353 OA
HETATM    2  C   UNN     0     -20.975   1.070   7.404  0.00  0.00     0.198 C 
HETATM    3  C   UNN     0     -21.322   2.521   7.152  0.00  0.00     0.182 C 
HETATM    4  C   UNN     0     -20.489   1.040   8.853  0.00  0.00     0.262 C 
HETATM    5  C   UNN     0     -21.633   2.999   8.555  0.00  0.00     0.180 C 
ENDROOT
BRANCH   5   6
HETATM    6  C   UNN     0     -23.053   2.679   9.013  0.00  0.00     0.215 C 
BRANCH   6   7
HETATM    7  O   UNN     0     -23.568   3.771   9.733  0.00  0.00    -0.294 OA
BRANCH   7   8
HETATM    8  P   UNN     0     -23.631   3.683  11.333  0.00  0.00     0.401 P 
HETATM    9  O   UNN     0     -24.777   2.894  11.857  0.00  0.00    -0.631 OA
BRANCH   8  10
HETATM   10  O   UNN     0     -22.242   3.504  12.125  0.00  0.00    -0.205 OA
BRANCH  10  11
HETATM   11  P   UNN     0     -22.369   3.075  13.657  0.00  0.00     0.339 P 
HETATM   12  O   UNN     0     -22.361   1.628  14.000  0.00  0.00    -0.641 OA
BRANCH  11  13
HETATM   13  O   UNN     0     -23.617   3.791  14.409  0.00  0.00    -0.316 OA
HETATM   14  H   UNN     0     -24.425   3.463  14.055  0.00  0.00     0.221 HD
ENDBRANCH  11  13
BRANCH  11  15
HETATM   15  N   UNN     0     -21.183   3.839  14.732  0.00  0.00    -0.136 NA
HETATM   16  H   UNN     0     -20.249   3.698  14.345  0.00  0.00     0.145 HD
BRANCH  15  17
HETATM   17  P   UNN     0     -21.471   5.575  14.882  0.00  0.00     0.328 P 
HETATM   18  O   UNN     0     -22.103   6.019  16.150  0.00  0.00    -0.641 OA
BRANCH  17  19
HETATM   19  O   UNN     0     -20.160   6.514  14.692  0.00  0.00    -0.317 OA
HETATM   20  H   UNN     0     -19.964   6.562  13.768  0.00  0.00     0.221 HD
ENDBRANCH  17  19
BRANCH  17  21
HETATM   21  O   UNN     0     -22.333   6.244  13.680  0.00  0.00    -0.317 OA
HETATM   22  H   UNN     0     -22.147   7.169  13.653  0.00  0.00     0.221 HD
ENDBRANCH  17  21
ENDBRANCH  15  17
ENDBRANCH  11  15
ENDBRANCH  10  11
ENDBRANCH   8  10
BRANCH   8  23
HETATM   23  O   UNN     0     -24.071   5.139  11.931  0.00  0.00    -0.307 OA
HETATM   24  H   UNN     0     -23.849   5.151  12.846  0.00  0.00     0.222 HD
ENDBRANCH   8  23
ENDBRANCH   7   8
ENDBRANCH   6   7
ENDBRANCH   5   6
BRANCH   3  25
HETATM   25  O   UNN     0     -20.176   3.180   6.670  0.00  0.00    -0.390 OA
HETATM   26  H   UNN     0     -19.413   2.975   7.213  0.00  0.00     0.210 HD
ENDBRANCH   3  25
BRANCH   4  27
HETATM   27  N   UNN     0     -21.079  -0.041   9.669  0.00  0.00    -0.297 N 
HETATM   28  C   UNN     0     -20.835  -0.197  10.900  0.00  0.00     0.142 A 
HETATM   29  N   UNN     0     -20.131   0.377  11.776  0.00  0.00    -0.336 N 
HETATM   30  C   UNN     0     -21.566  -1.285  11.205  0.00  0.00     0.122 A 
HETATM   31  C   UNN     0     -20.154  -0.149  12.929  0.00  0.00     0.183 A 
HETATM   32  HN  UNN     0     -19.580   1.211  11.570  1.00  0.00     0.168 HD
HETATM   33  N   UNN     0     -20.799  -1.176  13.301  0.00  0.00    -0.337 N 
HETATM   34  C   UNN     0     -21.529  -1.774  12.455  0.00  0.00     0.131 A 
HETATM   35  HN  UNN     0     -20.732  -1.513  14.261  1.00  0.00     0.168 HD
HETATM   36  N   UNN     0     -22.207  -2.808  12.727  0.00  0.00    -0.383 N 
HETATM   37  H   UNN     0     -22.790  -3.270  11.987  0.00  0.00     0.157 HD
HETATM   38  H   UNN     0     -22.192  -3.214  13.695  0.00  0.00     0.157 HD
HETATM   39  N   UNN     0     -22.203  -1.697  10.189  0.00  0.00    -0.346 N 
HETATM   40  C   UNN     0     -21.892  -0.914   9.246  0.00  0.00     0.188 A 
HETATM   41  HN  UNN     0     -22.836  -2.497  10.142  1.00  0.00     0.167 HD
ENDBRANCH   4  27
BRANCH   2  42
HETATM   42  O   UNN     0     -19.975   0.658   6.504  0.00  0.00    -0.388 OA
HETATM   43  H   UNN     0     -19.930  -0.303   6.514  0.00  0.00     0.210 HD
ENDBRANCH   2  42
TORSDOF 14
ENDMDL
MODEL 8
REMARK VINA RESULT:      -6.0     17.028     19.188
REMARK  14 active torsions:
REMARK  status: ('A' for Active; 'I' for Inactive)
REMARK    1  A    between atoms: P_1  and  O_7 
REMARK    2  A    between atoms: P_1  and  O_8 
REMARK    3  A    between atoms: P_1  and  O_9 
REMARK    4  A    between atoms: P_2  and  O_8 
REMARK    5  A    between atoms: P_2  and  O_11 
REMARK    6  A    between atoms: P_2  and  N_24 
REMARK    7  A    between atoms: P_3  and  O_13 
REMARK    8  A    between atoms: P_3  and  O_14 
REMARK    9  A    between atoms: P_3  and  N_24 
REMARK   10  A    between atoms: O_5  and  C_25 
REMARK   11  A    between atoms: O_6  and  C_26 
REMARK   12  A    between atoms: O_7  and  C_29 
REMARK   13  A    between atoms: N_16  and  C_27 
REMARK   14  A    between atoms: C_28  and  C_29 
ROOT
HETATM    1  O   UNN     0     -14.897  12.917  17.575  0.00  0.00    -0.353 OA
HETATM    2  C   UNN     0     -16.046  13.763  19.451  0.00  0.00     0.198 C 
HETATM    3  C   UNN     0     -15.011  14.756  18.970  0.00  0.00     0.182 C 
HETATM    4  C   UNN     0     -15.984  12.624  18.435  0.00  0.00     0.262 C 
HETATM    5  C   UNN     0     -14.068  13.851  18.204  0.00  0.00     0.180 C 
ENDROOT
BRANCH   5   6
HETATM    6  C   UNN     0     -13.052  13.133  19.089  0.00  0.00     0.215 C 
BRANCH   6   7
HETATM    7  O   UNN     0     -12.725  13.952  20.183  0.00  0.00    -0.294 OA
BRANCH   7   8
HETATM    8  P   UNN     0     -12.621  13.292  21.641  0.00  0.00     0.401 P 
HETATM    9  O   UNN     0     -13.809  12.489  22.034  0.00  0.00    -0.631 OA
BRANCH   8  10
HETATM   10  O   UNN     0     -11.197  12.692  22.088  0.00  0.00    -0.205 OA
BRANCH  10  11
HETATM   11  P   UNN     0      -9.916  13.497  21.581  0.00  0.00     0.339 P 
HETATM   12  O   UNN     0      -8.606  13.249  22.239  0.00  0.00    -0.641 OA
BRANCH  11  13
HETATM   13  O   UNN     0     -10.172  15.098  21.499  0.00  0.00    -0.316 OA
HETATM   14  H   UNN     0     -11.097  15.269  21.537  0.00  0.00     0.221 HD
ENDBRANCH  11  13
BRANCH  11  15
HETATM   15  N   UNN     0      -9.618  13.378  19.837  0.00  0.00    -0.136 NA
HETATM   16  H   UNN     0     -10.251  14.014  19.351  0.00  0.00     0.145 HD
BRANCH  15  17
HETATM   17  P   UNN     0      -7.957  13.823  19.434  0.00  0.00     0.328 P 
HETATM   18  O   UNN     0      -7.712  14.196  18.018  0.00  0.00    -0.641 OA
BRANCH  17  19
HETATM   19  O   UNN     0      -7.328  15.029  20.321  0.00  0.00    -0.317 OA
HETATM   20  H   UNN     0      -7.679  15.845  19.998  0.00  0.00     0.221 HD
ENDBRANCH  17  19
BRANCH  17  21
HETATM   21  O   UNN     0      -6.828  12.723  19.821  0.00  0.00    -0.317 OA
HETATM   22  H   UNN     0      -6.565  12.862  20.717  0.00  0.00     0.221 HD
ENDBRANCH  17  21
ENDBRANCH  15  17
ENDBRANCH  11  15
ENDBRANCH  10  11
ENDBRANCH   8  10
BRANCH   8  23
HETATM   23  O   UNN     0     -12.762  14.465  22.770  0.00  0.00    -0.307 OA
HETATM   24  H   UNN     0     -12.542  14.087  23.604  0.00  0.00     0.222 HD
ENDBRANCH   8  23
ENDBRANCH   7   8
ENDBRANCH   6   7
ENDBRANCH   5   6
BRANCH   3  25
HETATM   25  O   UNN     0     -15.629  15.655  18.082  0.00  0.00    -0.390 OA
HETATM   26  H   UNN     0     -16.583  15.617  18.169  0.00  0.00     0.210 HD
ENDBRANCH   3  25
BRANCH   4  27
HETATM   27  N   UNN     0     -15.928  11.276  19.036  0.00  0.00    -0.297 N 
HETATM   28  C   UNN     0     -15.400  10.279  18.464  0.00  0.00     0.142 A 
HETATM   29  N   UNN     0     -14.819  10.052  17.367  0.00  0.00    -0.336 N 
HETATM   30  C   UNN     0     -15.592   9.295  19.362  0.00  0.00     0.122 A 
HETATM   31  C   UNN     0     -14.458   8.852  17.177  0.00  0.00     0.183 A 
HETATM   32  HN  UNN     0     -14.651  10.786  16.678  1.00  0.00     0.168 HD
HETATM   33  N   UNN     0     -14.608   7.862  17.956  0.00  0.00    -0.337 N 
HETATM   34  C   UNN     0     -15.175   8.051  19.074  0.00  0.00     0.131 A 
HETATM   35  HN  UNN     0     -14.281   6.934  17.688  1.00  0.00     0.168 HD
HETATM   36  N   UNN     0     -15.377   7.129  19.918  0.00  0.00    -0.383 N 
HETATM   37  H   UNN     0     -15.858   7.337  20.827  0.00  0.00     0.157 HD
HETATM   38  H   UNN     0     -15.065   6.147  19.717  0.00  0.00     0.157 HD
HETATM   39  N   UNN     0     -16.182   9.736  20.394  0.00  0.00    -0.346 N 
HETATM   40  C   UNN     0     -16.381  10.967  20.177  0.00  0.00     0.188 A 
HETATM   41  HN  UNN     0     -16.443   9.208  21.227  1.00  0.00     0.167 HD
ENDBRANCH   4  27
BRANCH   2  42
HETATM   42  O   UNN     0     -17.313  14.376  19.480  0.00  0.00    -0.388 OA
HETATM   43  H   UNN     0     -17.791  14.056  20.251  0.00  0.00     0.210 HD
ENDBRANCH   2  42
TORSDOF 14
ENDMDL
MODEL 9
REMARK VINA RESULT:      -6.0     19.217     20.988
REMARK  14 active torsions:
REMARK  status: ('A' for Active; 'I' for Inactive)
REMARK    1  A    between atoms: P_1  and  O_7 
REMARK    2  A    between atoms: P_1  and  O_8 
REMARK    3  A    between atoms: P_1  and  O_9 
REMARK    4  A    between atoms: P_2  and  O_8 
REMARK    5  A    between atoms: P_2  and  O_11 
REMARK    6  A    between atoms: P_2  and  N_24 
REMARK    7  A    between atoms: P_3  and  O_13 
REMARK    8  A    between atoms: P_3  and  O_14 
REMARK    9  A    between atoms: P_3  and  N_24 
REMARK   10  A    between atoms: O_5  and  C_25 
REMARK   11  A    between atoms: O_6  and  C_26 
REMARK   12  A    between atoms: O_7  and  C_29 
REMARK   13  A    between atoms: N_16  and  C_27 
REMARK   14  A    between atoms: C_28  and  C_29 
ROOT
HETATM    1  O   UNN     0     -21.046   2.475  12.891  0.00  0.00    -0.353 OA
HETATM    2  C   UNN     0     -22.795   3.941  13.480  0.00  0.00     0.198 C 
HETATM    3  C   UNN     0     -22.120   3.395  14.719  0.00  0.00     0.182 C 
HETATM    4  C   UNN     0     -21.981   3.373  12.319  0.00  0.00     0.262 C 
HETATM    5  C   UNN     0     -21.482   2.133  14.176  0.00  0.00     0.180 C 
ENDROOT
BRANCH   5   6
HETATM    6  C   UNN     0     -22.436   0.944  14.102  0.00  0.00     0.215 C 
BRANCH   6   7
HETATM    7  O   UNN     0     -21.718  -0.245  14.314  0.00  0.00    -0.294 OA
BRANCH   7   8
HETATM    8  P   UNN     0     -20.928  -0.903  13.082  0.00  0.00     0.401 P 
HETATM    9  O   UNN     0     -20.605  -2.342  13.263  0.00  0.00    -0.631 OA
BRANCH   8  10
HETATM   10  O   UNN     0     -21.368  -0.469  11.597  0.00  0.00    -0.205 OA
BRANCH  10  11
HETATM   11  P   UNN     0     -20.199  -0.426  10.513  0.00  0.00     0.339 P 
HETATM   12  O   UNN     0     -19.350   0.792  10.421  0.00  0.00    -0.641 OA
BRANCH  11  13
HETATM   13  O   UNN     0     -20.706  -0.832   9.025  0.00  0.00    -0.316 OA
HETATM   14  H   UNN     0     -20.974  -1.734   9.022  0.00  0.00     0.221 HD
ENDBRANCH  11  13
BRANCH  11  15
HETATM   15  N   UNN     0     -19.078  -1.799  10.588  0.00  0.00    -0.136 NA
HETATM   16  H   UNN     0     -18.723  -1.881  11.541  0.00  0.00     0.145 HD
BRANCH  15  17
HETATM   17  P   UNN     0     -19.880  -3.312  10.156  0.00  0.00     0.328 P 
HETATM   18  O   UNN     0     -19.639  -3.801   8.776  0.00  0.00    -0.641 OA
BRANCH  17  19
HETATM   19  O   UNN     0     -19.558  -4.570  11.131  0.00  0.00    -0.317 OA
HETATM   20  H   UNN     0     -20.254  -4.633  11.768  0.00  0.00     0.221 HD
ENDBRANCH  17  19
BRANCH  17  21
HETATM   21  O   UNN     0     -21.488  -3.335  10.376  0.00  0.00    -0.317 OA
HETATM   22  H   UNN     0     -21.758  -4.224  10.546  0.00  0.00     0.221 HD
ENDBRANCH  17  21
ENDBRANCH  15  17
ENDBRANCH  11  15
ENDBRANCH  10  11
ENDBRANCH   8  10
BRANCH   8  23
HETATM   23  O   UNN     0     -19.397  -0.332  13.064  0.00  0.00    -0.307 OA
HETATM   24  H   UNN     0     -18.844  -1.010  12.717  0.00  0.00     0.222 HD
ENDBRANCH   8  23
ENDBRANCH   7   8
ENDBRANCH   6   7
ENDBRANCH   5   6
BRANCH   3  25
HETATM   25  O   UNN     0     -21.118   4.297  15.119  0.00  0.00    -0.390 OA
HETATM   26  H   UNN     0     -21.341   5.191  14.856  0.00  0.00     0.210 HD
ENDBRANCH   3  25
BRANCH   4  27
HETATM   27  N   UNN     0     -22.794   2.784  11.236  0.00  0.00    -0.297 N 
HETATM   28  C   UNN     0     -22.391   2.674  10.043  0.00  0.00     0.142 A 
HETATM   29  N   UNN     0     -21.346   2.959   9.397  0.00  0.00    -0.336 N 
HETATM   30  C   UNN     0     -23.448   2.106   9.432  0.00  0.00     0.122 A 
HETATM   31  C   UNN     0     -21.377   2.694   8.158  0.00  0.00     0.183 A 
HETATM   32  HN  UNN     0     -20.528   3.377   9.843  1.00  0.00     0.168 HD
HETATM   33  N   UNN     0     -22.328   2.175   7.498  0.00  0.00    -0.337 N 
HETATM   34  C   UNN     0     -23.391   1.860   8.113  0.00  0.00     0.131 A 
HETATM   35  HN  UNN     0     -22.239   2.015   6.495  1.00  0.00     0.168 HD
HETATM   36  N   UNN     0     -24.398   1.343   7.544  0.00  0.00    -0.383 N 
HETATM   37  H   UNN     0     -25.257   1.108   8.097  0.00  0.00     0.157 HD
HETATM   38  H   UNN     0     -24.382   1.144   6.513  0.00  0.00     0.157 HD
HETATM   39  N   UNN     0     -24.385   1.894  10.259  0.00  0.00    -0.346 N 
HETATM   40  C   UNN     0     -23.963   2.318  11.374  0.00  0.00     0.188 A 
HETATM   41  HN  UNN     0     -25.293   1.469  10.065  1.00  0.00     0.167 HD
ENDBRANCH   4  27
BRANCH   2  42
HETATM   42  O   UNN     0     -22.768   5.347  13.506  0.00  0.00    -0.388 OA
HETATM   43  H   UNN     0     -22.754   5.671  12.600  0.00  0.00     0.210 HD
ENDBRANCH   2  42
TORSDOF 14
ENDMDL
