REMARK  4 active torsions:
REMARK  status: ('A' for Active; 'I' for Inactive)
REMARK    1  A    between atoms: N_1  and  C_3 
REMARK    2  A    between atoms: C_3  and  C_4 
REMARK    3  A    between atoms: C_3  and  C_15 
REMARK       I    between atoms: C_4  and  N_12 
REMARK    4  A    between atoms: C_7  and  C_8 
ROOT
HETATM    1  N           1       0.281   0.056   0.720  0.00  0.00    -0.338 N 
HETATM    2  C           1       0.487  -1.141   1.332  0.00  0.00     0.221 C 
HETATM    3  C           1      -0.685   0.021  -0.364  0.00  0.00     0.136 C 
HETATM    4  C           1      -0.692  -1.493  -0.688  0.00  0.00     0.040 C 
HETATM    5  C           1      -0.359  -2.197   0.651  0.00  0.00     0.113 C 
HETATM    6  O           1       1.228  -1.318   2.266  0.00  0.00    -0.273 OA
ENDROOT
BRANCH   1   7
HETATM    7  C           1       0.970   1.295   1.067  0.00  0.00     0.178 C 
BRANCH   7   8
HETATM    8  C           1       0.055   2.517   1.016  0.00  0.00     0.238 C 
HETATM    9  O           1       0.314   3.555   0.465  0.00  0.00    -0.271 OA
HETATM   10  N           1      -1.126   2.369   1.674  0.00  0.00    -0.368 N 
HETATM   11  H           1      -1.763   3.153   1.675  0.00  0.00     0.159 HD
HETATM   12  H           1      -1.356   1.510   2.155  0.00  0.00     0.159 HD
ENDBRANCH   7   8
BRANCH   7  13
HETATM   13  C           1       2.324   1.451   0.348  0.00  0.00     0.030 C 
HETATM   14  C           1       2.253   1.440  -1.183  0.00  0.00     0.007 C 
ENDBRANCH   7  13
ENDBRANCH   1   7
BRANCH   4  15
HETATM   15  C           1      -1.962  -2.001  -1.319  0.00  0.00     0.054 C 
HETATM   16  C           1      -2.046  -3.152  -2.000  0.00  0.00     0.263 C 
HETATM   17  F           1      -3.197  -3.551  -2.514  0.00  0.00    -0.173 F 
HETATM   18  F           1      -0.984  -3.921  -2.172  0.00  0.00    -0.173 F 
ENDBRANCH   4  15
TORSDOF 4
