REMARK  1 active torsions:
REMARK  status: ('A' for Active; 'I' for Inactive)
REMARK    1  A    between atoms: O_5  and  C_17 
ROOT
HETATM    1  O   UNN     0      -0.695   0.861   1.527  0.00  0.00    -0.221 OA
HETATM    2  O   UNN     0      -1.555   1.341  -1.137  0.00  0.00    -0.320 OA
HETATM    3  O   UNN     0       0.437   2.245  -0.847  0.00  0.00    -0.328 OA
HETATM    4  O   UNN     0      -1.533   1.967   1.046  0.00  0.00    -0.200 OA
HETATM    5  C   UNN     0      -0.089   0.197   0.441  0.00  0.00     0.154 C 
HETATM    6  C   UNN     0      -0.783  -1.188   0.366  0.00  0.00     0.033 C 
HETATM    7  C   UNN     0       1.406   0.042   0.796  0.00  0.00     0.037 C 
HETATM    8  C   UNN     0      -0.019  -2.246  -0.464  0.00  0.00    -0.011 C 
HETATM    9  C   UNN     0      -0.216   0.989  -0.850  0.00  0.00     0.305 C 
HETATM   10  C   UNN     0       2.134  -1.026  -0.037  0.00  0.00     0.009 C 
HETATM   11  C   UNN     0       2.092   1.424   0.760  0.00  0.00     0.044 C 
HETATM   12  C   UNN     0      -2.252  -1.101  -0.092  0.00  0.00     0.014 C 
HETATM   13  C   UNN     0       1.423  -2.378   0.045  0.00  0.00     0.005 C 
HETATM   14  C   UNN     0      -2.351   1.466   0.014  0.00  0.00     0.196 C 
HETATM   15  C   UNN     0      -3.019   0.142   0.381  0.00  0.00     0.071 C 
HETATM   16  C   UNN     0       1.795   2.209  -0.503  0.00  0.00     0.264 C 
HETATM   17  C   UNN     0      -0.685  -3.635  -0.442  0.00  0.00     0.010 C 
HETATM   18  C   UNN     0       3.603   1.384   1.046  0.00  0.00     0.015 C 
HETATM   19  C   UNN     0      -3.405   2.534  -0.266  0.00  0.00     0.082 C 
ENDROOT
BRANCH  16  20
HETATM   20  O   UNN     0       2.407   1.698  -1.670  0.00  0.00    -0.371 OA
HETATM   21  H   UNN     0       2.025   2.161  -2.420  0.00  0.00     0.212 HD
ENDBRANCH  16  20
TORSDOF 1
