MODEL 1
REMARK VINA RESULT:      -6.4      0.000      0.000
REMARK  1 active torsions:
REMARK  status: ('A' for Active; 'I' for Inactive)
REMARK    1  A    between atoms: O_5  and  C_17 
ROOT
HETATM    1  O   UNN     0       1.863   8.314  35.870  0.00  0.00    -0.221 OA
HETATM    2  O   UNN     0       3.924   7.633  34.038  0.00  0.00    -0.320 OA
HETATM    3  O   UNN     0       2.890   9.445  33.321  0.00  0.00    -0.328 OA
HETATM    4  O   UNN     0       1.781   7.375  34.744  0.00  0.00    -0.200 OA
HETATM    5  C   UNN     0       3.029   9.100  35.768  0.00  0.00     0.154 C 
HETATM    6  C   UNN     0       3.953   8.616  36.916  0.00  0.00     0.033 C 
HETATM    7  C   UNN     0       2.596  10.565  35.995  0.00  0.00     0.037 C 
HETATM    8  C   UNN     0       5.100   9.591  37.273  0.00  0.00    -0.011 C 
HETATM    9  C   UNN     0       3.678   8.977  34.399  0.00  0.00     0.305 C 
HETATM   10  C   UNN     0       3.756  11.506  36.360  0.00  0.00     0.009 C 
HETATM   11  C   UNN     0       1.766  11.051  34.788  0.00  0.00     0.044 C 
HETATM   12  C   UNN     0       4.504   7.195  36.686  0.00  0.00     0.014 C 
HETATM   13  C   UNN     0       4.535  10.986  37.570  0.00  0.00     0.005 C 
HETATM   14  C   UNN     0       3.028   6.729  34.634  0.00  0.00     0.196 C 
HETATM   15  C   UNN     0       3.551   6.223  35.977  0.00  0.00     0.071 C 
HETATM   16  C   UNN     0       2.421  10.759  33.452  0.00  0.00     0.264 C 
HETATM   17  C   UNN     0       5.942   9.126  38.476  0.00  0.00     0.010 C 
HETATM   18  C   UNN     0       1.324  12.522  34.879  0.00  0.00     0.015 C 
HETATM   19  C   UNN     0       2.833   5.564  33.666  0.00  0.00     0.082 C 
ENDROOT
BRANCH  16  20
HETATM   20  O   UNN     0       3.569  11.537  33.178  0.00  0.00    -0.371 OA
HETATM   21  H   UNN     0       3.408  12.006  32.355  0.00  0.00     0.212 HD
ENDBRANCH  16  20
TORSDOF 1
ENDMDL
MODEL 2
REMARK VINA RESULT:      -6.0     41.350     43.104
REMARK  1 active torsions:
REMARK  status: ('A' for Active; 'I' for Inactive)
REMARK    1  A    between atoms: O_5  and  C_17 
ROOT
HETATM    1  O   UNN     0      34.282  36.846  19.682  0.00  0.00    -0.221 OA
HETATM    2  O   UNN     0      34.195  37.171  22.502  0.00  0.00    -0.320 OA
HETATM    3  O   UNN     0      32.594  38.382  21.586  0.00  0.00    -0.328 OA
HETATM    4  O   UNN     0      35.046  37.802  20.493  0.00  0.00    -0.200 OA
HETATM    5  C   UNN     0      33.238  36.282  20.443  0.00  0.00     0.154 C 
HETATM    6  C   UNN     0      33.647  34.804  20.672  0.00  0.00     0.033 C 
HETATM    7  C   UNN     0      31.962  36.369  19.576  0.00  0.00     0.037 C 
HETATM    8  C   UNN     0      32.491  33.877  21.115  0.00  0.00    -0.011 C 
HETATM    9  C   UNN     0      33.011  37.038  21.742  0.00  0.00     0.305 C 
HETATM   10  C   UNN     0      30.836  35.426  20.033  0.00  0.00     0.009 C 
HETATM   11  C   UNN     0      31.520  37.842  19.453  0.00  0.00     0.044 C 
HETATM   12  C   UNN     0      34.852  34.654  21.622  0.00  0.00     0.014 C 
HETATM   13  C   UNN     0      31.323  33.979  20.124  0.00  0.00     0.005 C 
HETATM   14  C   UNN     0      35.359  37.173  21.714  0.00  0.00     0.196 C 
HETATM   15  C   UNN     0      35.911  35.761  21.526  0.00  0.00     0.071 C 
HETATM   16  C   UNN     0      31.459  38.564  20.785  0.00  0.00     0.264 C 
HETATM   17  C   UNN     0      32.908  32.400  21.244  0.00  0.00     0.010 C 
HETATM   18  C   UNN     0      30.222  38.044  18.652  0.00  0.00     0.015 C 
HETATM   19  C   UNN     0      36.388  38.058  22.412  0.00  0.00     0.082 C 
ENDROOT
BRANCH  16  20
HETATM   20  O   UNN     0      30.403  38.152  21.628  0.00  0.00    -0.371 OA
HETATM   21  H   UNN     0      30.408  38.728  22.397  0.00  0.00     0.212 HD
ENDBRANCH  16  20
TORSDOF 1
ENDMDL
MODEL 3
REMARK VINA RESULT:      -6.0     40.810     42.307
REMARK  1 active torsions:
REMARK  status: ('A' for Active; 'I' for Inactive)
REMARK    1  A    between atoms: O_5  and  C_17 
ROOT
HETATM    1  O   UNN     0      41.591  24.082  22.257  0.00  0.00    -0.221 OA
HETATM    2  O   UNN     0      40.204  26.560  22.301  0.00  0.00    -0.320 OA
HETATM    3  O   UNN     0      38.737  24.911  22.312  0.00  0.00    -0.328 OA
HETATM    4  O   UNN     0      41.204  24.908  21.106  0.00  0.00    -0.200 OA
HETATM    5  C   UNN     0      40.916  24.513  23.418  0.00  0.00     0.154 C 
HETATM    6  C   UNN     0      42.006  25.160  24.311  0.00  0.00     0.033 C 
HETATM    7  C   UNN     0      40.339  23.247  24.089  0.00  0.00     0.037 C 
HETATM    8  C   UNN     0      41.604  25.331  25.794  0.00  0.00    -0.011 C 
HETATM    9  C   UNN     0      39.780  25.468  23.092  0.00  0.00     0.305 C 
HETATM   10  C   UNN     0      39.961  23.446  25.566  0.00  0.00     0.009 C 
HETATM   11  C   UNN     0      39.186  22.686  23.229  0.00  0.00     0.044 C 
HETATM   12  C   UNN     0      42.541  26.488  23.740  0.00  0.00     0.014 C 
HETATM   13  C   UNN     0      41.140  23.988  26.375  0.00  0.00     0.005 C 
HETATM   14  C   UNN     0      41.313  26.258  21.493  0.00  0.00     0.196 C 
HETATM   15  C   UNN     0      42.628  26.562  22.209  0.00  0.00     0.071 C 
HETATM   16  C   UNN     0      38.171  23.737  22.826  0.00  0.00     0.264 C 
HETATM   17  C   UNN     0      42.740  25.890  26.673  0.00  0.00     0.010 C 
HETATM   18  C   UNN     0      38.497  21.450  23.831  0.00  0.00     0.015 C 
HETATM   19  C   UNN     0      41.198  27.090  20.218  0.00  0.00     0.082 C 
ENDROOT
BRANCH  16  20
HETATM   20  O   UNN     0      37.362  24.210  23.885  0.00  0.00    -0.371 OA
HETATM   21  H   UNN     0      36.603  24.647  23.492  0.00  0.00     0.212 HD
ENDBRANCH  16  20
TORSDOF 1
ENDMDL
MODEL 4
REMARK VINA RESULT:      -5.9     14.161     16.754
REMARK  1 active torsions:
REMARK  status: ('A' for Active; 'I' for Inactive)
REMARK    1  A    between atoms: O_5  and  C_17 
ROOT
HETATM    1  O   UNN     0       0.298  -5.684  40.207  0.00  0.00    -0.221 OA
HETATM    2  O   UNN     0      -1.913  -6.184  41.919  0.00  0.00    -0.320 OA
HETATM    3  O   UNN     0      -0.212  -7.441  42.549  0.00  0.00    -0.328 OA
HETATM    4  O   UNN     0      -0.801  -6.634  39.990  0.00  0.00    -0.200 OA
HETATM    5  C   UNN     0       0.304  -5.238  41.544  0.00  0.00     0.154 C 
HETATM    6  C   UNN     0      -0.137  -3.752  41.485  0.00  0.00     0.033 C 
HETATM    7  C   UNN     0       1.761  -5.357  42.043  0.00  0.00     0.037 C 
HETATM    8  C   UNN     0       0.189  -2.933  42.756  0.00  0.00    -0.011 C 
HETATM    9  C   UNN     0      -0.597  -6.084  42.428  0.00  0.00     0.305 C 
HETATM   10  C   UNN     0       2.056  -4.522  43.299  0.00  0.00     0.009 C 
HETATM   11  C   UNN     0       2.136  -6.847  42.192  0.00  0.00     0.044 C 
HETATM   12  C   UNN     0      -1.619  -3.580  41.097  0.00  0.00     0.014 C 
HETATM   13  C   UNN     0       1.681  -3.053  43.094  0.00  0.00     0.005 C 
HETATM   14  C   UNN     0      -1.973  -6.060  40.521  0.00  0.00     0.196 C 
HETATM   15  C   UNN     0      -2.163  -4.606  40.093  0.00  0.00     0.071 C 
HETATM   16  C   UNN     0       1.109  -7.650  42.966  0.00  0.00     0.264 C 
HETATM   17  C   UNN     0      -0.177  -1.442  42.630  0.00  0.00     0.010 C 
HETATM   18  C   UNN     0       3.554  -7.087  42.737  0.00  0.00     0.015 C 
HETATM   19  C   UNN     0      -3.139  -6.915  40.031  0.00  0.00     0.082 C 
ENDROOT
BRANCH  16  20
HETATM   20  O   UNN     0       1.057  -7.361  44.348  0.00  0.00    -0.371 OA
HETATM   21  H   UNN     0       0.156  -7.522  44.641  0.00  0.00     0.212 HD
ENDBRANCH  16  20
TORSDOF 1
ENDMDL
MODEL 5
REMARK VINA RESULT:      -5.8     22.575     25.312
REMARK  1 active torsions:
REMARK  status: ('A' for Active; 'I' for Inactive)
REMARK    1  A    between atoms: O_5  and  C_17 
ROOT
HETATM    1  O   UNN     0       1.668 -16.107  29.751  0.00  0.00    -0.221 OA
HETATM    2  O   UNN     0       3.883 -15.827  27.995  0.00  0.00    -0.320 OA
HETATM    3  O   UNN     0       2.095 -16.368  26.821  0.00  0.00    -0.328 OA
HETATM    4  O   UNN     0       2.661 -17.130  29.398  0.00  0.00    -0.200 OA
HETATM    5  C   UNN     0       1.755 -15.013  28.866  0.00  0.00     0.154 C 
HETATM    6  C   UNN     0       2.334 -13.847  29.708  0.00  0.00     0.033 C 
HETATM    7  C   UNN     0       0.314 -14.697  28.411  0.00  0.00     0.037 C 
HETATM    8  C   UNN     0       2.137 -12.445  29.087  0.00  0.00    -0.011 C 
HETATM    9  C   UNN     0       2.604 -15.336  27.647  0.00  0.00     0.305 C 
HETATM   10  C   UNN     0       0.147 -13.291  27.810  0.00  0.00     0.009 C 
HETATM   11  C   UNN     0      -0.197 -15.825  27.489  0.00  0.00     0.044 C 
HETATM   12  C   UNN     0       3.810 -14.061  30.097  0.00  0.00     0.014 C 
HETATM   13  C   UNN     0       0.654 -12.211  28.767  0.00  0.00     0.005 C 
HETATM   14  C   UNN     0       3.903 -16.483  29.238  0.00  0.00     0.196 C 
HETATM   15  C   UNN     0       4.215 -15.515  30.378  0.00  0.00     0.071 C 
HETATM   16  C   UNN     0       0.776 -16.184  26.384  0.00  0.00     0.264 C 
HETATM   17  C   UNN     0       2.639 -11.302  29.989  0.00  0.00     0.010 C 
HETATM   18  C   UNN     0      -1.610 -15.588  26.929  0.00  0.00     0.015 C 
HETATM   19  C   UNN     0       4.961 -17.580  29.165  0.00  0.00     0.082 C 
ENDROOT
BRANCH  16  20
HETATM   20  O   UNN     0       0.908 -15.203  25.375  0.00  0.00    -0.371 OA
HETATM   21  H   UNN     0       1.697 -14.693  25.572  0.00  0.00     0.212 HD
ENDBRANCH  16  20
TORSDOF 1
ENDMDL
MODEL 6
REMARK VINA RESULT:      -5.8     14.016     16.541
REMARK  1 active torsions:
REMARK  status: ('A' for Active; 'I' for Inactive)
REMARK    1  A    between atoms: O_5  and  C_17 
ROOT
HETATM    1  O   UNN     0       1.711  -5.484  41.550  0.00  0.00    -0.221 OA
HETATM    2  O   UNN     0       0.279  -6.699  43.681  0.00  0.00    -0.320 OA
HETATM    3  O   UNN     0       0.883  -4.664  44.283  0.00  0.00    -0.328 OA
HETATM    4  O   UNN     0       2.249  -6.353  42.604  0.00  0.00    -0.200 OA
HETATM    5  C   UNN     0       0.411  -5.054  41.884  0.00  0.00     0.154 C 
HETATM    6  C   UNN     0      -0.533  -5.787  40.895  0.00  0.00     0.033 C 
HETATM    7  C   UNN     0       0.375  -3.529  41.648  0.00  0.00     0.037 C 
HETATM    8  C   UNN     0      -1.949  -5.175  40.784  0.00  0.00    -0.011 C 
HETATM    9  C   UNN     0       0.076  -5.342  43.339  0.00  0.00     0.305 C 
HETATM   10  C   UNN     0      -1.046  -2.953  41.529  0.00  0.00     0.009 C 
HETATM   11  C   UNN     0       1.239  -2.820  42.712  0.00  0.00     0.044 C 
HETATM   12  C   UNN     0      -0.620  -7.303  41.157  0.00  0.00     0.014 C 
HETATM   13  C   UNN     0      -1.854  -3.679  40.452  0.00  0.00     0.005 C 
HETATM   14  C   UNN     0       1.269  -7.321  42.901  0.00  0.00     0.196 C 
HETATM   15  C   UNN     0       0.676  -7.964  41.649  0.00  0.00     0.071 C 
HETATM   16  C   UNN     0       0.939  -3.272  44.128  0.00  0.00     0.264 C 
HETATM   17  C   UNN     0      -2.830  -5.866  39.726  0.00  0.00     0.010 C 
HETATM   18  C   UNN     0       1.233  -1.285  42.607  0.00  0.00     0.015 C 
HETATM   19  C   UNN     0       1.947  -8.377  43.771  0.00  0.00     0.082 C 
ENDROOT
BRANCH  16  20
HETATM   20  O   UNN     0      -0.312  -2.844  44.629  0.00  0.00    -0.371 OA
HETATM   21  H   UNN     0      -0.965  -3.496  44.363  0.00  0.00     0.212 HD
ENDBRANCH  16  20
TORSDOF 1
ENDMDL
MODEL 7
REMARK VINA RESULT:      -5.7     40.688     42.492
REMARK  1 active torsions:
REMARK  status: ('A' for Active; 'I' for Inactive)
REMARK    1  A    between atoms: O_5  and  C_17 
ROOT
HETATM    1  O   UNN     0      32.245  36.332  19.147  0.00  0.00    -0.221 OA
HETATM    2  O   UNN     0      31.264  37.510  21.537  0.00  0.00    -0.320 OA
HETATM    3  O   UNN     0      30.552  35.425  21.415  0.00  0.00    -0.328 OA
HETATM    4  O   UNN     0      31.022  37.127  19.312  0.00  0.00    -0.200 OA
HETATM    5  C   UNN     0      32.752  35.945  20.404  0.00  0.00     0.154 C 
HETATM    6  C   UNN     0      34.056  36.763  20.592  0.00  0.00     0.033 C 
HETATM    7  C   UNN     0      33.061  34.435  20.311  0.00  0.00     0.037 C 
HETATM    8  C   UNN     0      35.004  36.219  21.687  0.00  0.00    -0.011 C 
HETATM    9  C   UNN     0      31.745  36.181  21.518  0.00  0.00     0.305 C 
HETATM   10  C   UNN     0      34.015  33.928  21.405  0.00  0.00     0.009 C 
HETATM   11  C   UNN     0      31.740  33.641  20.231  0.00  0.00     0.044 C 
HETATM   12  C   UNN     0      33.798  38.268  20.800  0.00  0.00     0.014 C 
HETATM   13  C   UNN     0      35.313  34.738  21.432  0.00  0.00     0.005 C 
HETATM   14  C   UNN     0      31.286  38.123  20.273  0.00  0.00     0.196 C 
HETATM   15  C   UNN     0      32.608  38.848  20.024  0.00  0.00     0.071 C 
HETATM   16  C   UNN     0      30.733  34.041  21.293  0.00  0.00     0.264 C 
HETATM   17  C   UNN     0      36.331  36.996  21.785  0.00  0.00     0.010 C 
HETATM   18  C   UNN     0      31.925  32.114  20.190  0.00  0.00     0.015 C 
HETATM   19  C   UNN     0      30.121  39.107  20.215  0.00  0.00     0.082 C 
ENDROOT
BRANCH  16  20
HETATM   20  O   UNN     0      31.076  33.646  22.606  0.00  0.00    -0.371 OA
HETATM   21  H   UNN     0      30.621  32.819  22.784  0.00  0.00     0.212 HD
ENDBRANCH  16  20
TORSDOF 1
ENDMDL
MODEL 8
REMARK VINA RESULT:      -5.6     40.640     42.414
REMARK  1 active torsions:
REMARK  status: ('A' for Active; 'I' for Inactive)
REMARK    1  A    between atoms: O_5  and  C_17 
ROOT
HETATM    1  O   UNN     0      31.213  36.603  21.946  0.00  0.00    -0.221 OA
HETATM    2  O   UNN     0      31.213  37.080  19.146  0.00  0.00    -0.320 OA
HETATM    3  O   UNN     0      32.999  38.019  20.039  0.00  0.00    -0.328 OA
HETATM    4  O   UNN     0      30.544  37.696  21.228  0.00  0.00    -0.200 OA
HETATM    5  C   UNN     0      32.138  35.956  21.103  0.00  0.00     0.154 C 
HETATM    6  C   UNN     0      31.528  34.558  20.818  0.00  0.00     0.033 C 
HETATM    7  C   UNN     0      33.452  35.826  21.904  0.00  0.00     0.037 C 
HETATM    8  C   UNN     0      32.531  33.519  20.267  0.00  0.00    -0.011 C 
HETATM    9  C   UNN     0      32.403  36.751  19.835  0.00  0.00     0.305 C 
HETATM   10  C   UNN     0      34.422  34.776  21.339  0.00  0.00     0.009 C 
HETATM   11  C   UNN     0      34.089  37.221  22.081  0.00  0.00     0.044 C 
HETATM   12  C   UNN     0      30.272  34.621  19.926  0.00  0.00     0.014 C 
HETATM   13  C   UNN     0      33.747  33.411  21.198  0.00  0.00     0.005 C 
HETATM   14  C   UNN     0      30.097  37.185  19.993  0.00  0.00     0.196 C 
HETATM   15  C   UNN     0      29.373  35.847  20.137  0.00  0.00     0.071 C 
HETATM   16  C   UNN     0      34.184  38.006  20.787  0.00  0.00     0.264 C 
HETATM   17  C   UNN     0      31.918  32.118  20.083  0.00  0.00     0.010 C 
HETATM   18  C   UNN     0      35.437  37.207  22.822  0.00  0.00     0.015 C 
HETATM   19  C   UNN     0      29.161  38.235  19.399  0.00  0.00     0.082 C 
ENDROOT
BRANCH  16  20
HETATM   20  O   UNN     0      35.137  37.512  19.869  0.00  0.00    -0.371 OA
HETATM   21  H   UNN     0      34.673  37.320  19.050  0.00  0.00     0.212 HD
ENDBRANCH  16  20
TORSDOF 1
ENDMDL
MODEL 9
REMARK VINA RESULT:      -5.5      1.975      3.877
REMARK  1 active torsions:
REMARK  status: ('A' for Active; 'I' for Inactive)
REMARK    1  A    between atoms: O_5  and  C_17 
ROOT
HETATM    1  O   UNN     0       4.039   9.791  36.200  0.00  0.00    -0.221 OA
HETATM    2  O   UNN     0       1.817   8.167  35.499  0.00  0.00    -0.320 OA
HETATM    3  O   UNN     0       1.418   9.138  37.441  0.00  0.00    -0.328 OA
HETATM    4  O   UNN     0       3.864   8.357  36.465  0.00  0.00    -0.200 OA
HETATM    5  C   UNN     0       2.815  10.371  35.810  0.00  0.00     0.154 C 
HETATM    6  C   UNN     0       2.982  10.711  34.306  0.00  0.00     0.033 C 
HETATM    7  C   UNN     0       2.648  11.658  36.647  0.00  0.00     0.037 C 
HETATM    8  C   UNN     0       1.947  11.720  33.756  0.00  0.00    -0.011 C 
HETATM    9  C   UNN     0       1.639   9.446  36.077  0.00  0.00     0.305 C 
HETATM   10  C   UNN     0       1.622  12.646  36.067  0.00  0.00     0.009 C 
HETATM   11  C   UNN     0       2.379  11.286  38.120  0.00  0.00     0.044 C 
HETATM   12  C   UNN     0       3.043   9.459  33.409  0.00  0.00     0.014 C 
HETATM   13  C   UNN     0       1.942  12.994  34.612  0.00  0.00     0.005 C 
HETATM   14  C   UNN     0       3.168   7.803  35.372  0.00  0.00     0.196 C 
HETATM   15  C   UNN     0       3.742   8.239  34.025  0.00  0.00     0.071 C 
HETATM   16  C   UNN     0       1.286  10.247  38.287  0.00  0.00     0.264 C 
HETATM   17  C   UNN     0       2.196  12.108  32.286  0.00  0.00     0.010 C 
HETATM   18  C   UNN     0       2.141  12.494  39.041  0.00  0.00     0.015 C 
HETATM   19  C   UNN     0       3.254   6.287  35.522  0.00  0.00     0.082 C 
ENDROOT
BRANCH  16  20
HETATM   20  O   UNN     0      -0.017  10.714  38.002  0.00  0.00    -0.371 OA
HETATM   21  H   UNN     0      -0.589   9.945  37.938  0.00  0.00     0.212 HD
ENDBRANCH  16  20
TORSDOF 1
ENDMDL
