REMARK  5 active torsions:
REMARK  status: ('A' for Active; 'I' for Inactive)
REMARK    1  A    between atoms: O_1  and  C_9 
REMARK    2  A    between atoms: C_3  and  C_4 
REMARK    3  A    between atoms: C_3  and  C_5 
REMARK    4  A    between atoms: C_4  and  C_6 
REMARK    5  A    between atoms: C_6  and  C_9 
ROOT
HETATM    1  C   UNN     0      -0.363  -0.266  -0.599  0.00  0.00     0.039 C 
ENDROOT
BRANCH   1   2
HETATM    2  C   UNN     0      -1.122  -0.501   0.717  0.00  0.00     0.015 C 
BRANCH   2   3
HETATM    3  C   UNN     0      -2.619  -0.777   0.501  0.00  0.00     0.110 C 
BRANCH   3   4
HETATM    4  C   UNN     0      -3.398   0.401  -0.054  0.00  0.00     0.139 C 
HETATM    5  O   UNN     0      -3.065   1.562  -0.060  0.00  0.00    -0.650 OA
BRANCH   4   6
HETATM    6  O   UNN     0      -4.577   0.007  -0.574  0.00  0.00    -0.776 OA
HETATM    7  H   UNN     0      -5.040   0.792  -0.910  0.00  0.00     0.167 HD
ENDBRANCH   4   6
ENDBRANCH   3   4
ENDBRANCH   2   3
ENDBRANCH   1   2
BRANCH   1   8
HETATM    8  C   UNN     0       1.106  -0.009  -0.336  0.00  0.00    -0.058 A 
HETATM    9  C   UNN     0       1.551   1.237  -0.091  0.00  0.00     0.007 A 
HETATM   10  C   UNN     0       2.851   1.472   0.145  0.00  0.00     0.001 A 
HETATM   11  C   UNN     0       3.727   0.456   0.141  0.00  0.00     0.000 A 
HETATM   12  C   UNN     0       3.296  -0.792  -0.099  0.00  0.00     0.001 A 
HETATM   13  C   UNN     0       1.995  -1.019  -0.335  0.00  0.00     0.007 A 
ENDBRANCH   1   8
TORSDOF 5
